 Entering Gaussian System, Link 0=g16
 Initial command:
 /lustre/apps/g16/l1.exe "/lustre/home/cisneros/EPosdoc/Donadores/Gau-714679.inp" -scrdir="/lustre/home/cisneros/EPosdoc/Donadores/"
 Entering Link 1 = /lustre/apps/g16/l1.exe PID=    714681.
  
 Copyright (c) 1988-2017, Gaussian, Inc.  All Rights Reserved.
  
 This is part of the Gaussian(R) 16 program.  It is based on
 the Gaussian(R) 09 system (copyright 2009, Gaussian, Inc.),
 the Gaussian(R) 03 system (copyright 2003, Gaussian, Inc.),
 the Gaussian(R) 98 system (copyright 1998, Gaussian, Inc.),
 the Gaussian(R) 94 system (copyright 1995, Gaussian, Inc.),
 the Gaussian 92(TM) system (copyright 1992, Gaussian, Inc.),
 the Gaussian 90(TM) system (copyright 1990, Gaussian, Inc.),
 the Gaussian 88(TM) system (copyright 1988, Gaussian, Inc.),
 the Gaussian 86(TM) system (copyright 1986, Carnegie Mellon
 University), and the Gaussian 82(TM) system (copyright 1983,
 Carnegie Mellon University). Gaussian is a federally registered
 trademark of Gaussian, Inc.
  
 This software contains proprietary and confidential information,
 including trade secrets, belonging to Gaussian, Inc.
  
 This software is provided under written license and may be
 used, copied, transmitted, or stored only in accord with that
 written license.
  
 The following legend is applicable only to US Government
 contracts under FAR:
  
                    RESTRICTED RIGHTS LEGEND
  
 Use, reproduction and disclosure by the US Government is
 subject to restrictions as set forth in subparagraphs (a)
 and (c) of the Commercial Computer Software - Restricted
 Rights clause in FAR 52.227-19.
  
 Gaussian, Inc.
 340 Quinnipiac St., Bldg. 40, Wallingford CT 06492
  
  
 ---------------------------------------------------------------
 Warning -- This program may not be used in any manner that
 competes with the business of Gaussian, Inc. or will provide
 assistance to any competitor of Gaussian, Inc.  The licensee
 of this program is prohibited from giving any competitor of
 Gaussian, Inc. access to this program.  By using this program,
 the user acknowledges that Gaussian, Inc. is engaged in the
 business of creating and licensing software in the field of
 computational chemistry and represents and warrants to the
 licensee that it is not a competitor of Gaussian, Inc. and that
 it will not use this program in any manner prohibited above.
 ---------------------------------------------------------------
  

 Cite this work as:
 Gaussian 16, Revision B.01,
 M. J. Frisch, G. W. Trucks, H. B. Schlegel, G. E. Scuseria, 
 M. A. Robb, J. R. Cheeseman, G. Scalmani, V. Barone, 
 G. A. Petersson, H. Nakatsuji, X. Li, M. Caricato, A. V. Marenich, 
 J. Bloino, B. G. Janesko, R. Gomperts, B. Mennucci, H. P. Hratchian, 
 J. V. Ortiz, A. F. Izmaylov, J. L. Sonnenberg, D. Williams-Young, 
 F. Ding, F. Lipparini, F. Egidi, J. Goings, B. Peng, A. Petrone, 
 T. Henderson, D. Ranasinghe, V. G. Zakrzewski, J. Gao, N. Rega, 
 G. Zheng, W. Liang, M. Hada, M. Ehara, K. Toyota, R. Fukuda, 
 J. Hasegawa, M. Ishida, T. Nakajima, Y. Honda, O. Kitao, H. Nakai, 
 T. Vreven, K. Throssell, J. A. Montgomery, Jr., J. E. Peralta, 
 F. Ogliaro, M. J. Bearpark, J. J. Heyd, E. N. Brothers, K. N. Kudin, 
 V. N. Staroverov, T. A. Keith, R. Kobayashi, J. Normand, 
 K. Raghavachari, A. P. Rendell, J. C. Burant, S. S. Iyengar, 
 J. Tomasi, M. Cossi, J. M. Millam, M. Klene, C. Adamo, R. Cammi, 
 J. W. Ochterski, R. L. Martin, K. Morokuma, O. Farkas, 
 J. B. Foresman, and D. J. Fox, Gaussian, Inc., Wallingford CT, 2016.
 
 ******************************************
 Gaussian 16:  ES64L-G16RevB.01 20-Dec-2017
                16-Aug-2022 
 ******************************************
 %mem=36GB
 %nprocshared=36
 Will use up to   36 processors via shared memory.
 %chk=p-donor-1-unit-OPT-cation-HSE-6311G.chk
 -------------------------------
 # opt freq hseh1pbe/6-311g(d,p)
 -------------------------------
 1/18=20,19=15,26=3,38=1/1,3;
 2/9=110,12=2,17=6,18=5,40=1/2;
 3/5=4,6=6,7=101,11=2,25=1,30=1,71=1,74=-51/1,2,3;
 4//1;
 5/5=2,38=5/2;
 6/7=2,8=2,9=2,10=2,28=1/1;
 7//1,2,3,16;
 1/18=20,19=15,26=3/3(2);
 2/9=110/2;
 99//99;
 2/9=110/2;
 3/5=4,6=6,7=101,11=2,25=1,30=1,71=1,74=-51/1,2,3;
 4/5=5,16=3,69=1/1;
 5/5=2,38=5/2;
 7//1,2,3,16;
 1/18=20,19=15,26=3/3(-5);
 2/9=110/2;
 6/7=2,8=2,9=2,10=2,19=2,28=1/1;
 99/9=1/99;
 ---------------------------------------------------------
 estructura optimizada de p-donor-1-unit-opt-HSE-6311G.log
 ---------------------------------------------------------
 Symbolic Z-matrix:
 Charge =  1 Multiplicity = 2
 C                    -3.8792    3.37169  -0.41159 
 C                    -4.98947   2.52838  -0.39212 
 C                    -4.82255   1.111    -0.23654 
 C                    -3.50652   0.57777  -0.09893 
 C                    -2.38398   1.47421  -0.12714 
 C                    -2.58323   2.84917  -0.279 
 H                    -6.93961   0.641    -0.30572 
 C                    -5.93686   0.24296  -0.21404 
 C                    -3.32307  -0.81364   0.0565 
 C                    -4.42127  -1.63343   0.07071 
 C                    -5.72977  -1.10321  -0.0638 
 H                    -2.32594  -1.2234    0.15444 
 C                    -5.89541  -3.35325   0.15702 
 N                    -6.60337  -2.17178  -0.00637 
 N                    -4.55416  -3.00215   0.20326 
 O                    -6.35764  -4.47117   0.24183 
 C                    -8.04476  -2.16511  -0.14369 
 H                    -8.32081  -1.25031  -0.67626 
 H                    -8.30997  -3.01424  -0.78083 
 C                    -3.52234  -3.99901   0.40507 
 H                    -2.64569  -3.4968    0.82473 
 H                    -3.89544  -4.69432   1.16263 
 C                    -3.16982  -4.78626  -0.86136 
 H                    -4.1235   -5.16404  -1.25234 
 C                    -8.79296  -2.28431   1.18815 
 H                    -8.3963   -3.18443   1.67607 
 C                    -2.31914  -6.00158  -0.48304 
 H                    -2.85309  -6.56583   0.29078 
 H                    -1.38111  -5.66948  -0.0196 
 C                    -2.53925  -3.90288  -1.946 
 H                    -2.56415  -4.44366  -2.8982 
 H                    -3.17749  -3.02429  -2.09407 
 C                    -10.28589  -2.53823   0.93754 
 H                    -10.75889  -2.80794   1.88741 
 H                    -10.37966  -3.42636   0.30117 
 C                    -8.51186  -1.08996   2.10243 
 H                    -8.86742  -0.16757   1.62446 
 H                    -7.42689  -0.97504   2.20074 
 C                    -1.0023    1.16173  -0.0066 
 C                    -6.20533   3.2672   -0.54238 
 H                    -0.61546   0.16116   0.14061 
 H                    -7.18808   2.81448  -0.55606 
 C                     1.25887   2.29843   0.01884 
 C                     2.07179   3.39357   0.21245 
 S                     2.20324   0.85398  -0.11804 
 C                     3.43721   3.07615   0.26145 
 H                     1.6862    4.39844   0.33307 
 C                     3.70168   1.72851   0.10814 
 H                     4.22415   3.7995    0.41228 
 C                     4.9918    1.07671   0.11324 
 C                     6.23358   1.78359   0.27993 
 C                     5.17018  -0.28077  -0.03707 
 C                     7.51021   1.09527   0.2816 
 C                     6.41537  -0.94783  -0.03558 
 C                     7.63442  -0.32586   0.12017 
 S                     7.94595   3.41954   0.58817 
 N                     8.53848   1.91536   0.44747 
 N                     6.36093   3.09454   0.44501 
 F                     6.33194  -2.27014  -0.2 
 F                     4.11111  -1.0793   -0.20356 
 C                     8.9032   -1.02495   0.12043 
 C                     9.13219  -2.37906  -0.02128 
 S                     10.42961  -0.19217   0.314 
 C                     10.49634  -2.73196   0.02487 
 H                     8.34043  -3.09943  -0.15471 
 C                     11.32983  -1.66099   0.20144 
 H                     10.84878  -3.75104  -0.07016 
 C                     12.82427  -1.63427   0.29928 
 H                     13.11338  -1.17088   1.2504 
 H                     13.22338  -0.9771   -0.48292 
 C                    -2.01352  -6.93011  -1.65057 
 H                    -1.40151  -6.44105  -2.41382 
 H                    -1.47015  -7.81711  -1.31441 
 H                    -2.93601  -7.26866  -2.13285 
 C                    -1.10804  -3.45302  -1.67191 
 H                    -0.40846  -4.2936   -1.67402 
 H                    -0.77222  -2.74613  -2.43477 
 H                    -1.00696  -2.95331  -0.70296 
 C                    -11.0564  -1.3822    0.30764 
 H                    -10.65335  -1.10011  -0.66985 
 H                    -12.10358  -1.65651   0.15535 
 H                    -11.04328  -0.4906    0.94133 
 C                    -9.12358  -1.2134    3.49176 
 H                    -8.81659  -0.38113   4.1305 
 H                    -10.21695  -1.2158    3.46033 
 H                    -8.80483  -2.14037   3.97934 
 C                    -0.17572   2.25095  -0.07014 
 C                    -6.02904   4.60888  -0.66893 
 S                    -1.09033   3.72681  -0.29037 
 S                    -4.33614   5.03297  -0.60883 
 C                    -7.0525    5.68662  -0.84232 
 H                    -6.94347   6.41715  -0.03131 
 H                    -6.8392    6.23682  -1.76702 
 C                     13.47037  -3.00778   0.18669 
 H                     14.55664  -2.92462   0.26538 
 H                     13.12738  -3.67466   0.98228 
 H                     13.23963  -3.47811  -0.77294 
 C                    -8.48505   5.17396  -0.87513 
 H                    -8.63877   4.47769  -1.70399 
 H                    -8.74408   4.6596    0.05427 
 H                    -9.18285   6.00442  -1.00291 
 

 GradGradGradGradGradGradGradGradGradGradGradGradGradGradGradGradGradGrad
 Berny optimization.
 Initialization pass.
                           ----------------------------
                           !    Initial Parameters    !
                           ! (Angstroms and Degrees)  !
 --------------------------                            --------------------------
 ! Name  Definition              Value          Derivative Info.                !
 --------------------------------------------------------------------------------
 ! R1    R(1,2)                  1.3944         estimate D2E/DX2                !
 ! R2    R(1,6)                  1.4036         estimate D2E/DX2                !
 ! R3    R(1,90)                 1.7342         estimate D2E/DX2                !
 ! R4    R(2,3)                  1.4356         estimate D2E/DX2                !
 ! R5    R(2,40)                 1.4306         estimate D2E/DX2                !
 ! R6    R(3,4)                  1.4266         estimate D2E/DX2                !
 ! R7    R(3,8)                  1.4127         estimate D2E/DX2                !
 ! R8    R(4,5)                  1.4368         estimate D2E/DX2                !
 ! R9    R(4,9)                  1.412          estimate D2E/DX2                !
 ! R10   R(5,6)                  1.3976         estimate D2E/DX2                !
 ! R11   R(5,39)                 1.4217         estimate D2E/DX2                !
 ! R12   R(6,89)                 1.7318         estimate D2E/DX2                !
 ! R13   R(7,8)                  1.0827         estimate D2E/DX2                !
 ! R14   R(8,11)                 1.3703         estimate D2E/DX2                !
 ! R15   R(9,10)                 1.3705         estimate D2E/DX2                !
 ! R16   R(9,12)                 1.0825         estimate D2E/DX2                !
 ! R17   R(10,11)                1.4182         estimate D2E/DX2                !
 ! R18   R(10,15)                1.3815         estimate D2E/DX2                !
 ! R19   R(11,14)                1.3814         estimate D2E/DX2                !
 ! R20   R(13,14)                1.387          estimate D2E/DX2                !
 ! R21   R(13,15)                1.3872         estimate D2E/DX2                !
 ! R22   R(13,16)                1.2127         estimate D2E/DX2                !
 ! R23   R(14,17)                1.4479         estimate D2E/DX2                !
 ! R24   R(15,20)                1.4488         estimate D2E/DX2                !
 ! R25   R(17,18)                1.0939         estimate D2E/DX2                !
 ! R26   R(17,19)                1.0942         estimate D2E/DX2                !
 ! R27   R(17,25)                1.5323         estimate D2E/DX2                !
 ! R28   R(20,21)                1.094          estimate D2E/DX2                !
 ! R29   R(20,22)                1.0939         estimate D2E/DX2                !
 ! R30   R(20,23)                1.5323         estimate D2E/DX2                !
 ! R31   R(23,24)                1.0978         estimate D2E/DX2                !
 ! R32   R(23,27)                1.5309         estimate D2E/DX2                !
 ! R33   R(23,30)                1.5344         estimate D2E/DX2                !
 ! R34   R(25,26)                1.098          estimate D2E/DX2                !
 ! R35   R(25,33)                1.535          estimate D2E/DX2                !
 ! R36   R(25,36)                1.5302         estimate D2E/DX2                !
 ! R37   R(27,28)                1.0965         estimate D2E/DX2                !
 ! R38   R(27,29)                1.0977         estimate D2E/DX2                !
 ! R39   R(27,71)                1.5227         estimate D2E/DX2                !
 ! R40   R(30,31)                1.0953         estimate D2E/DX2                !
 ! R41   R(30,32)                1.096          estimate D2E/DX2                !
 ! R42   R(30,75)                1.5251         estimate D2E/DX2                !
 ! R43   R(33,34)                1.0949         estimate D2E/DX2                !
 ! R44   R(33,35)                1.0966         estimate D2E/DX2                !
 ! R45   R(33,79)                1.5254         estimate D2E/DX2                !
 ! R46   R(36,37)                1.098          estimate D2E/DX2                !
 ! R47   R(36,38)                1.0955         estimate D2E/DX2                !
 ! R48   R(36,83)                1.5231         estimate D2E/DX2                !
 ! R49   R(39,41)                1.0828         estimate D2E/DX2                !
 ! R50   R(39,87)                1.3688         estimate D2E/DX2                !
 ! R51   R(40,42)                1.0821         estimate D2E/DX2                !
 ! R52   R(40,88)                1.3591         estimate D2E/DX2                !
 ! R53   R(43,44)                1.3776         estimate D2E/DX2                !
 ! R54   R(43,45)                1.7312         estimate D2E/DX2                !
 ! R55   R(43,87)                1.4381         estimate D2E/DX2                !
 ! R56   R(44,46)                1.4027         estimate D2E/DX2                !
 ! R57   R(44,47)                1.083          estimate D2E/DX2                !
 ! R58   R(45,48)                1.7497         estimate D2E/DX2                !
 ! R59   R(46,48)                1.3819         estimate D2E/DX2                !
 ! R60   R(46,49)                1.0795         estimate D2E/DX2                !
 ! R61   R(48,50)                1.4454         estimate D2E/DX2                !
 ! R62   R(50,51)                1.4386         estimate D2E/DX2                !
 ! R63   R(50,52)                1.3774         estimate D2E/DX2                !
 ! R64   R(51,53)                1.4504         estimate D2E/DX2                !
 ! R65   R(51,58)                1.3274         estimate D2E/DX2                !
 ! R66   R(52,54)                1.4126         estimate D2E/DX2                !
 ! R67   R(52,60)                1.3368         estimate D2E/DX2                !
 ! R68   R(53,55)                1.4357         estimate D2E/DX2                !
 ! R69   R(53,57)                1.3257         estimate D2E/DX2                !
 ! R70   R(54,55)                1.3774         estimate D2E/DX2                !
 ! R71   R(54,59)                1.3351         estimate D2E/DX2                !
 ! R72   R(55,61)                1.4486         estimate D2E/DX2                !
 ! R73   R(56,57)                1.6228         estimate D2E/DX2                !
 ! R74   R(56,58)                1.6243         estimate D2E/DX2                !
 ! R75   R(61,62)                1.3806         estimate D2E/DX2                !
 ! R76   R(61,63)                1.7496         estimate D2E/DX2                !
 ! R77   R(62,64)                1.4098         estimate D2E/DX2                !
 ! R78   R(62,65)                1.0787         estimate D2E/DX2                !
 ! R79   R(63,66)                1.7264         estimate D2E/DX2                !
 ! R80   R(64,66)                1.3685         estimate D2E/DX2                !
 ! R81   R(64,67)                1.0825         estimate D2E/DX2                !
 ! R82   R(66,68)                1.4979         estimate D2E/DX2                !
 ! R83   R(68,69)                1.0968         estimate D2E/DX2                !
 ! R84   R(68,70)                1.0968         estimate D2E/DX2                !
 ! R85   R(68,94)                1.5221         estimate D2E/DX2                !
 ! R86   R(71,72)                1.0938         estimate D2E/DX2                !
 ! R87   R(71,73)                1.0932         estimate D2E/DX2                !
 ! R88   R(71,74)                1.0946         estimate D2E/DX2                !
 ! R89   R(75,76)                1.0936         estimate D2E/DX2                !
 ! R90   R(75,77)                1.0929         estimate D2E/DX2                !
 ! R91   R(75,78)                1.0949         estimate D2E/DX2                !
 ! R92   R(79,80)                1.0943         estimate D2E/DX2                !
 ! R93   R(79,81)                1.0932         estimate D2E/DX2                !
 ! R94   R(79,82)                1.0939         estimate D2E/DX2                !
 ! R95   R(83,84)                1.0931         estimate D2E/DX2                !
 ! R96   R(83,85)                1.0938         estimate D2E/DX2                !
 ! R97   R(83,86)                1.0948         estimate D2E/DX2                !
 ! R98   R(87,89)                1.7502         estimate D2E/DX2                !
 ! R99   R(88,90)                1.7462         estimate D2E/DX2                !
 ! R100  R(88,91)                1.4963         estimate D2E/DX2                !
 ! R101  R(91,92)                1.0969         estimate D2E/DX2                !
 ! R102  R(91,93)                1.0969         estimate D2E/DX2                !
 ! R103  R(91,98)                1.5219         estimate D2E/DX2                !
 ! R104  R(94,95)                1.0923         estimate D2E/DX2                !
 ! R105  R(94,96)                1.0933         estimate D2E/DX2                !
 ! R106  R(94,97)                1.0933         estimate D2E/DX2                !
 ! R107  R(98,99)                1.0934         estimate D2E/DX2                !
 ! R108  R(98,100)               1.0934         estimate D2E/DX2                !
 ! R109  R(98,101)               1.0922         estimate D2E/DX2                !
 ! A1    A(2,1,6)              120.5789         estimate D2E/DX2                !
 ! A2    A(2,1,90)             111.786          estimate D2E/DX2                !
 ! A3    A(6,1,90)             127.6351         estimate D2E/DX2                !
 ! A4    A(1,2,3)              120.4003         estimate D2E/DX2                !
 ! A5    A(1,2,40)             111.2795         estimate D2E/DX2                !
 ! A6    A(3,2,40)             128.3202         estimate D2E/DX2                !
 ! A7    A(2,3,4)              119.1263         estimate D2E/DX2                !
 ! A8    A(2,3,8)              121.1086         estimate D2E/DX2                !
 ! A9    A(4,3,8)              119.7648         estimate D2E/DX2                !
 ! A10   A(3,4,5)              119.0522         estimate D2E/DX2                !
 ! A11   A(3,4,9)              119.9196         estimate D2E/DX2                !
 ! A12   A(5,4,9)              121.0277         estimate D2E/DX2                !
 ! A13   A(4,5,6)              120.3014         estimate D2E/DX2                !
 ! A14   A(4,5,39)             128.3504         estimate D2E/DX2                !
 ! A15   A(6,5,39)             111.3464         estimate D2E/DX2                !
 ! A16   A(1,6,5)              120.5398         estimate D2E/DX2                !
 ! A17   A(1,6,89)             127.3481         estimate D2E/DX2                !
 ! A18   A(5,6,89)             112.11           estimate D2E/DX2                !
 ! A19   A(3,8,7)              120.2163         estimate D2E/DX2                !
 ! A20   A(3,8,11)             119.0902         estimate D2E/DX2                !
 ! A21   A(7,8,11)             120.6913         estimate D2E/DX2                !
 ! A22   A(4,9,10)             119.1087         estimate D2E/DX2                !
 ! A23   A(4,9,12)             120.1751         estimate D2E/DX2                !
 ! A24   A(10,9,12)            120.7142         estimate D2E/DX2                !
 ! A25   A(9,10,11)            120.9769         estimate D2E/DX2                !
 ! A26   A(9,10,15)            132.1208         estimate D2E/DX2                !
 ! A27   A(11,10,15)           106.9022         estimate D2E/DX2                !
 ! A28   A(8,11,10)            121.1393         estimate D2E/DX2                !
 ! A29   A(8,11,14)            131.9827         estimate D2E/DX2                !
 ! A30   A(10,11,14)           106.8779         estimate D2E/DX2                !
 ! A31   A(14,13,15)           106.3707         estimate D2E/DX2                !
 ! A32   A(14,13,16)           126.7934         estimate D2E/DX2                !
 ! A33   A(15,13,16)           126.8358         estimate D2E/DX2                !
 ! A34   A(11,14,13)           109.9383         estimate D2E/DX2                !
 ! A35   A(11,14,17)           128.4649         estimate D2E/DX2                !
 ! A36   A(13,14,17)           121.5481         estimate D2E/DX2                !
 ! A37   A(10,15,13)           109.9108         estimate D2E/DX2                !
 ! A38   A(10,15,20)           128.7939         estimate D2E/DX2                !
 ! A39   A(13,15,20)           121.2707         estimate D2E/DX2                !
 ! A40   A(14,17,18)           107.5313         estimate D2E/DX2                !
 ! A41   A(14,17,19)           107.0338         estimate D2E/DX2                !
 ! A42   A(14,17,25)           113.7847         estimate D2E/DX2                !
 ! A43   A(18,17,19)           107.7161         estimate D2E/DX2                !
 ! A44   A(18,17,25)           111.4073         estimate D2E/DX2                !
 ! A45   A(19,17,25)           109.1108         estimate D2E/DX2                !
 ! A46   A(15,20,21)           107.9546         estimate D2E/DX2                !
 ! A47   A(15,20,22)           106.9119         estimate D2E/DX2                !
 ! A48   A(15,20,23)           113.7168         estimate D2E/DX2                !
 ! A49   A(21,20,22)           107.425          estimate D2E/DX2                !
 ! A50   A(21,20,23)           111.626          estimate D2E/DX2                !
 ! A51   A(22,20,23)           108.9223         estimate D2E/DX2                !
 ! A52   A(20,23,24)           105.7423         estimate D2E/DX2                !
 ! A53   A(20,23,27)           109.3565         estimate D2E/DX2                !
 ! A54   A(20,23,30)           112.5188         estimate D2E/DX2                !
 ! A55   A(24,23,27)           107.3111         estimate D2E/DX2                !
 ! A56   A(24,23,30)           107.6604         estimate D2E/DX2                !
 ! A57   A(27,23,30)           113.7881         estimate D2E/DX2                !
 ! A58   A(17,25,26)           105.8798         estimate D2E/DX2                !
 ! A59   A(17,25,33)           110.236          estimate D2E/DX2                !
 ! A60   A(17,25,36)           111.6497         estimate D2E/DX2                !
 ! A61   A(26,25,33)           106.7563         estimate D2E/DX2                !
 ! A62   A(26,25,36)           107.938          estimate D2E/DX2                !
 ! A63   A(33,25,36)           113.9125         estimate D2E/DX2                !
 ! A64   A(23,27,28)           108.1988         estimate D2E/DX2                !
 ! A65   A(23,27,29)           109.8158         estimate D2E/DX2                !
 ! A66   A(23,27,71)           113.961          estimate D2E/DX2                !
 ! A67   A(28,27,29)           105.8948         estimate D2E/DX2                !
 ! A68   A(28,27,71)           108.968          estimate D2E/DX2                !
 ! A69   A(29,27,71)           109.6751         estimate D2E/DX2                !
 ! A70   A(23,30,31)           108.7185         estimate D2E/DX2                !
 ! A71   A(23,30,32)           108.5242         estimate D2E/DX2                !
 ! A72   A(23,30,75)           115.3683         estimate D2E/DX2                !
 ! A73   A(31,30,32)           105.3731         estimate D2E/DX2                !
 ! A74   A(31,30,75)           108.8566         estimate D2E/DX2                !
 ! A75   A(32,30,75)           109.5311         estimate D2E/DX2                !
 ! A76   A(25,33,34)           108.6202         estimate D2E/DX2                !
 ! A77   A(25,33,35)           108.1726         estimate D2E/DX2                !
 ! A78   A(25,33,79)           115.6797         estimate D2E/DX2                !
 ! A79   A(34,33,35)           105.4864         estimate D2E/DX2                !
 ! A80   A(34,33,79)           109.0702         estimate D2E/DX2                !
 ! A81   A(35,33,79)           109.3265         estimate D2E/DX2                !
 ! A82   A(25,36,37)           109.6399         estimate D2E/DX2                !
 ! A83   A(25,36,38)           108.5093         estimate D2E/DX2                !
 ! A84   A(25,36,83)           114.0796         estimate D2E/DX2                !
 ! A85   A(37,36,38)           105.7625         estimate D2E/DX2                !
 ! A86   A(37,36,83)           109.5786         estimate D2E/DX2                !
 ! A87   A(38,36,83)           108.9308         estimate D2E/DX2                !
 ! A88   A(5,39,41)            124.1833         estimate D2E/DX2                !
 ! A89   A(5,39,87)            114.0811         estimate D2E/DX2                !
 ! A90   A(41,39,87)           121.7272         estimate D2E/DX2                !
 ! A91   A(2,40,42)            123.8562         estimate D2E/DX2                !
 ! A92   A(2,40,88)            114.1632         estimate D2E/DX2                !
 ! A93   A(42,40,88)           121.9806         estimate D2E/DX2                !
 ! A94   A(44,43,45)           110.6411         estimate D2E/DX2                !
 ! A95   A(44,43,87)           128.5801         estimate D2E/DX2                !
 ! A96   A(45,43,87)           120.7788         estimate D2E/DX2                !
 ! A97   A(43,44,46)           113.5438         estimate D2E/DX2                !
 ! A98   A(43,44,47)           122.899          estimate D2E/DX2                !
 ! A99   A(46,44,47)           123.5478         estimate D2E/DX2                !
 ! A100  A(43,45,48)            92.2879         estimate D2E/DX2                !
 ! A101  A(44,46,48)           113.7731         estimate D2E/DX2                !
 ! A102  A(44,46,49)           124.2555         estimate D2E/DX2                !
 ! A103  A(48,46,49)           121.9694         estimate D2E/DX2                !
 ! A104  A(45,48,46)           109.7476         estimate D2E/DX2                !
 ! A105  A(45,48,50)           122.6469         estimate D2E/DX2                !
 ! A106  A(46,48,50)           127.604          estimate D2E/DX2                !
 ! A107  A(48,50,51)           123.3175         estimate D2E/DX2                !
 ! A108  A(48,50,52)           124.0306         estimate D2E/DX2                !
 ! A109  A(51,50,52)           112.6518         estimate D2E/DX2                !
 ! A110  A(50,51,53)           121.7852         estimate D2E/DX2                !
 ! A111  A(50,51,58)           125.6265         estimate D2E/DX2                !
 ! A112  A(53,51,58)           112.5883         estimate D2E/DX2                !
 ! A113  A(50,52,54)           125.4114         estimate D2E/DX2                !
 ! A114  A(50,52,60)           119.9809         estimate D2E/DX2                !
 ! A115  A(54,52,60)           114.6076         estimate D2E/DX2                !
 ! A116  A(51,53,55)           123.0798         estimate D2E/DX2                !
 ! A117  A(51,53,57)           112.9109         estimate D2E/DX2                !
 ! A118  A(55,53,57)           124.0094         estimate D2E/DX2                !
 ! A119  A(52,54,55)           124.5439         estimate D2E/DX2                !
 ! A120  A(52,54,59)           114.3608         estimate D2E/DX2                !
 ! A121  A(55,54,59)           121.0953         estimate D2E/DX2                !
 ! A122  A(53,55,54)           112.5279         estimate D2E/DX2                !
 ! A123  A(53,55,61)           123.6046         estimate D2E/DX2                !
 ! A124  A(54,55,61)           123.8675         estimate D2E/DX2                !
 ! A125  A(57,56,58)            99.3925         estimate D2E/DX2                !
 ! A126  A(53,57,56)           107.5202         estimate D2E/DX2                !
 ! A127  A(51,58,56)           107.5881         estimate D2E/DX2                !
 ! A128  A(55,61,62)           128.2115         estimate D2E/DX2                !
 ! A129  A(55,61,63)           122.3071         estimate D2E/DX2                !
 ! A130  A(62,61,63)           109.4814         estimate D2E/DX2                !
 ! A131  A(61,62,64)           113.7432         estimate D2E/DX2                !
 ! A132  A(61,62,65)           123.0888         estimate D2E/DX2                !
 ! A133  A(64,62,65)           123.168          estimate D2E/DX2                !
 ! A134  A(61,63,66)            92.4501         estimate D2E/DX2                !
 ! A135  A(62,64,66)           113.4316         estimate D2E/DX2                !
 ! A136  A(62,64,67)           123.2178         estimate D2E/DX2                !
 ! A137  A(66,64,67)           123.3506         estimate D2E/DX2                !
 ! A138  A(63,66,64)           110.8937         estimate D2E/DX2                !
 ! A139  A(63,66,68)           120.0535         estimate D2E/DX2                !
 ! A140  A(64,66,68)           129.0528         estimate D2E/DX2                !
 ! A141  A(66,68,69)           109.097          estimate D2E/DX2                !
 ! A142  A(66,68,70)           109.0957         estimate D2E/DX2                !
 ! A143  A(66,68,94)           113.7401         estimate D2E/DX2                !
 ! A144  A(69,68,70)           105.6271         estimate D2E/DX2                !
 ! A145  A(69,68,94)           109.4824         estimate D2E/DX2                !
 ! A146  A(70,68,94)           109.4801         estimate D2E/DX2                !
 ! A147  A(27,71,72)           112.0051         estimate D2E/DX2                !
 ! A148  A(27,71,73)           111.0241         estimate D2E/DX2                !
 ! A149  A(27,71,74)           110.9331         estimate D2E/DX2                !
 ! A150  A(72,71,73)           107.4135         estimate D2E/DX2                !
 ! A151  A(72,71,74)           107.6016         estimate D2E/DX2                !
 ! A152  A(73,71,74)           107.6638         estimate D2E/DX2                !
 ! A153  A(30,75,76)           111.9163         estimate D2E/DX2                !
 ! A154  A(30,75,77)           110.714          estimate D2E/DX2                !
 ! A155  A(30,75,78)           112.3532         estimate D2E/DX2                !
 ! A156  A(76,75,77)           107.4121         estimate D2E/DX2                !
 ! A157  A(76,75,78)           107.0648         estimate D2E/DX2                !
 ! A158  A(77,75,78)           107.1067         estimate D2E/DX2                !
 ! A159  A(33,79,80)           112.2206         estimate D2E/DX2                !
 ! A160  A(33,79,81)           110.5626         estimate D2E/DX2                !
 ! A161  A(33,79,82)           111.8649         estimate D2E/DX2                !
 ! A162  A(80,79,81)           107.0412         estimate D2E/DX2                !
 ! A163  A(80,79,82)           107.633          estimate D2E/DX2                !
 ! A164  A(81,79,82)           107.2598         estimate D2E/DX2                !
 ! A165  A(36,83,84)           111.0098         estimate D2E/DX2                !
 ! A166  A(36,83,85)           112.0515         estimate D2E/DX2                !
 ! A167  A(36,83,86)           110.9738         estimate D2E/DX2                !
 ! A168  A(84,83,85)           107.4081         estimate D2E/DX2                !
 ! A169  A(84,83,86)           107.6173         estimate D2E/DX2                !
 ! A170  A(85,83,86)           107.5755         estimate D2E/DX2                !
 ! A171  A(39,87,43)           128.7392         estimate D2E/DX2                !
 ! A172  A(39,87,89)           111.1791         estimate D2E/DX2                !
 ! A173  A(43,87,89)           120.0817         estimate D2E/DX2                !
 ! A174  A(40,88,90)           111.241          estimate D2E/DX2                !
 ! A175  A(40,88,91)           129.2775         estimate D2E/DX2                !
 ! A176  A(90,88,91)           119.4815         estimate D2E/DX2                !
 ! A177  A(6,89,87)             91.2786         estimate D2E/DX2                !
 ! A178  A(1,90,88)             91.5302         estimate D2E/DX2                !
 ! A179  A(88,91,92)           109.0269         estimate D2E/DX2                !
 ! A180  A(88,91,93)           109.0229         estimate D2E/DX2                !
 ! A181  A(88,91,98)           113.8098         estimate D2E/DX2                !
 ! A182  A(92,91,93)           105.657          estimate D2E/DX2                !
 ! A183  A(92,91,98)           109.5019         estimate D2E/DX2                !
 ! A184  A(93,91,98)           109.5006         estimate D2E/DX2                !
 ! A185  A(68,94,95)           110.3722         estimate D2E/DX2                !
 ! A186  A(68,94,96)           111.3112         estimate D2E/DX2                !
 ! A187  A(68,94,97)           111.3177         estimate D2E/DX2                !
 ! A188  A(95,94,96)           107.8191         estimate D2E/DX2                !
 ! A189  A(95,94,97)           107.8108         estimate D2E/DX2                !
 ! A190  A(96,94,97)           108.065          estimate D2E/DX2                !
 ! A191  A(91,98,99)           111.2971         estimate D2E/DX2                !
 ! A192  A(91,98,100)          111.2932         estimate D2E/DX2                !
 ! A193  A(91,98,101)          110.3518         estimate D2E/DX2                !
 ! A194  A(99,98,100)          108.151          estimate D2E/DX2                !
 ! A195  A(99,98,101)          107.7998         estimate D2E/DX2                !
 ! A196  A(100,98,101)         107.8054         estimate D2E/DX2                !
 ! D1    D(6,1,2,3)             -0.0294         estimate D2E/DX2                !
 ! D2    D(6,1,2,40)          -179.9896         estimate D2E/DX2                !
 ! D3    D(90,1,2,3)          -179.9681         estimate D2E/DX2                !
 ! D4    D(90,1,2,40)            0.0717         estimate D2E/DX2                !
 ! D5    D(2,1,6,5)              0.0927         estimate D2E/DX2                !
 ! D6    D(2,1,6,89)           179.5199         estimate D2E/DX2                !
 ! D7    D(90,1,6,5)          -179.9792         estimate D2E/DX2                !
 ! D8    D(90,1,6,89)           -0.5519         estimate D2E/DX2                !
 ! D9    D(2,1,90,88)           -0.0555         estimate D2E/DX2                !
 ! D10   D(6,1,90,88)         -179.9889         estimate D2E/DX2                !
 ! D11   D(1,2,3,4)              0.1522         estimate D2E/DX2                !
 ! D12   D(1,2,3,8)            179.9651         estimate D2E/DX2                !
 ! D13   D(40,2,3,4)          -179.8951         estimate D2E/DX2                !
 ! D14   D(40,2,3,8)            -0.0822         estimate D2E/DX2                !
 ! D15   D(1,2,40,42)          179.9625         estimate D2E/DX2                !
 ! D16   D(1,2,40,88)           -0.055          estimate D2E/DX2                !
 ! D17   D(3,2,40,42)            0.0063         estimate D2E/DX2                !
 ! D18   D(3,2,40,88)          179.9888         estimate D2E/DX2                !
 ! D19   D(2,3,4,5)             -0.3308         estimate D2E/DX2                !
 ! D20   D(2,3,4,9)            179.9321         estimate D2E/DX2                !
 ! D21   D(8,3,4,5)            179.8537         estimate D2E/DX2                !
 ! D22   D(8,3,4,9)              0.1167         estimate D2E/DX2                !
 ! D23   D(2,3,8,7)             -0.5595         estimate D2E/DX2                !
 ! D24   D(2,3,8,11)           179.9795         estimate D2E/DX2                !
 ! D25   D(4,3,8,7)            179.2522         estimate D2E/DX2                !
 ! D26   D(4,3,8,11)            -0.2088         estimate D2E/DX2                !
 ! D27   D(3,4,5,6)              0.3969         estimate D2E/DX2                !
 ! D28   D(3,4,5,39)           179.8613         estimate D2E/DX2                !
 ! D29   D(9,4,5,6)           -179.869          estimate D2E/DX2                !
 ! D30   D(9,4,5,39)            -0.4047         estimate D2E/DX2                !
 ! D31   D(3,4,9,10)             0.0853         estimate D2E/DX2                !
 ! D32   D(3,4,9,12)           179.5794         estimate D2E/DX2                !
 ! D33   D(5,4,9,10)          -179.6464         estimate D2E/DX2                !
 ! D34   D(5,4,9,12)            -0.1523         estimate D2E/DX2                !
 ! D35   D(4,5,6,1)             -0.278          estimate D2E/DX2                !
 ! D36   D(4,5,6,89)          -179.7866         estimate D2E/DX2                !
 ! D37   D(39,5,6,1)          -179.827          estimate D2E/DX2                !
 ! D38   D(39,5,6,89)            0.6644         estimate D2E/DX2                !
 ! D39   D(4,5,39,41)           -0.8456         estimate D2E/DX2                !
 ! D40   D(4,5,39,87)         -179.8045         estimate D2E/DX2                !
 ! D41   D(6,5,39,41)          178.6578         estimate D2E/DX2                !
 ! D42   D(6,5,39,87)           -0.301          estimate D2E/DX2                !
 ! D43   D(1,6,89,87)          179.8743         estimate D2E/DX2                !
 ! D44   D(5,6,89,87)           -0.6581         estimate D2E/DX2                !
 ! D45   D(3,8,11,10)            0.103          estimate D2E/DX2                !
 ! D46   D(3,8,11,14)          179.9979         estimate D2E/DX2                !
 ! D47   D(7,8,11,10)         -179.3554         estimate D2E/DX2                !
 ! D48   D(7,8,11,14)            0.5396         estimate D2E/DX2                !
 ! D49   D(4,9,10,11)           -0.1949         estimate D2E/DX2                !
 ! D50   D(4,9,10,15)          179.9864         estimate D2E/DX2                !
 ! D51   D(12,9,10,11)        -179.6862         estimate D2E/DX2                !
 ! D52   D(12,9,10,15)           0.495          estimate D2E/DX2                !
 ! D53   D(9,10,11,8)            0.1026         estimate D2E/DX2                !
 ! D54   D(9,10,11,14)        -179.8158         estimate D2E/DX2                !
 ! D55   D(15,10,11,8)         179.9621         estimate D2E/DX2                !
 ! D56   D(15,10,11,14)          0.0437         estimate D2E/DX2                !
 ! D57   D(9,10,15,13)         179.8514         estimate D2E/DX2                !
 ! D58   D(9,10,15,20)           1.6651         estimate D2E/DX2                !
 ! D59   D(11,10,15,13)          0.0138         estimate D2E/DX2                !
 ! D60   D(11,10,15,20)       -178.1725         estimate D2E/DX2                !
 ! D61   D(8,11,14,13)        -179.992          estimate D2E/DX2                !
 ! D62   D(8,11,14,17)           2.5491         estimate D2E/DX2                !
 ! D63   D(10,11,14,13)         -0.086          estimate D2E/DX2                !
 ! D64   D(10,11,14,17)       -177.5448         estimate D2E/DX2                !
 ! D65   D(15,13,14,11)          0.0939         estimate D2E/DX2                !
 ! D66   D(15,13,14,17)        177.7592         estimate D2E/DX2                !
 ! D67   D(16,13,14,11)       -179.8697         estimate D2E/DX2                !
 ! D68   D(16,13,14,17)         -2.2044         estimate D2E/DX2                !
 ! D69   D(14,13,15,10)         -0.0654         estimate D2E/DX2                !
 ! D70   D(14,13,15,20)        178.2807         estimate D2E/DX2                !
 ! D71   D(16,13,15,10)        179.8981         estimate D2E/DX2                !
 ! D72   D(16,13,15,20)         -1.7557         estimate D2E/DX2                !
 ! D73   D(11,14,17,18)         21.4536         estimate D2E/DX2                !
 ! D74   D(11,14,17,19)        136.956          estimate D2E/DX2                !
 ! D75   D(11,14,17,25)       -102.4315         estimate D2E/DX2                !
 ! D76   D(13,14,17,18)       -155.743          estimate D2E/DX2                !
 ! D77   D(13,14,17,19)        -40.2406         estimate D2E/DX2                !
 ! D78   D(13,14,17,25)         80.3719         estimate D2E/DX2                !
 ! D79   D(10,15,20,21)         21.8438         estimate D2E/DX2                !
 ! D80   D(10,15,20,22)        137.1554         estimate D2E/DX2                !
 ! D81   D(10,15,20,23)       -102.5938         estimate D2E/DX2                !
 ! D82   D(13,15,20,21)       -156.161          estimate D2E/DX2                !
 ! D83   D(13,15,20,22)        -40.8494         estimate D2E/DX2                !
 ! D84   D(13,15,20,23)         79.4014         estimate D2E/DX2                !
 ! D85   D(14,17,25,26)        -54.1163         estimate D2E/DX2                !
 ! D86   D(14,17,25,33)       -169.2245         estimate D2E/DX2                !
 ! D87   D(14,17,25,36)         63.105          estimate D2E/DX2                !
 ! D88   D(18,17,25,26)       -175.8766         estimate D2E/DX2                !
 ! D89   D(18,17,25,33)         69.0152         estimate D2E/DX2                !
 ! D90   D(18,17,25,36)        -58.6553         estimate D2E/DX2                !
 ! D91   D(19,17,25,26)         65.3234         estimate D2E/DX2                !
 ! D92   D(19,17,25,33)        -49.7848         estimate D2E/DX2                !
 ! D93   D(19,17,25,36)       -177.4553         estimate D2E/DX2                !
 ! D94   D(15,20,23,24)        -52.1536         estimate D2E/DX2                !
 ! D95   D(15,20,23,27)       -167.4122         estimate D2E/DX2                !
 ! D96   D(15,20,23,30)         65.1098         estimate D2E/DX2                !
 ! D97   D(21,20,23,24)       -174.59           estimate D2E/DX2                !
 ! D98   D(21,20,23,27)         70.1514         estimate D2E/DX2                !
 ! D99   D(21,20,23,30)        -57.3266         estimate D2E/DX2                !
 ! D100  D(22,20,23,24)         66.9567         estimate D2E/DX2                !
 ! D101  D(22,20,23,27)        -48.302          estimate D2E/DX2                !
 ! D102  D(22,20,23,30)       -175.78           estimate D2E/DX2                !
 ! D103  D(20,23,27,28)         53.3959         estimate D2E/DX2                !
 ! D104  D(20,23,27,29)        -61.7484         estimate D2E/DX2                !
 ! D105  D(20,23,27,71)        174.7635         estimate D2E/DX2                !
 ! D106  D(24,23,27,28)        -60.8531         estimate D2E/DX2                !
 ! D107  D(24,23,27,29)       -175.9974         estimate D2E/DX2                !
 ! D108  D(24,23,27,71)         60.5145         estimate D2E/DX2                !
 ! D109  D(30,23,27,28)       -179.8433         estimate D2E/DX2                !
 ! D110  D(30,23,27,29)         65.0123         estimate D2E/DX2                !
 ! D111  D(30,23,27,71)        -58.4757         estimate D2E/DX2                !
 ! D112  D(20,23,30,31)       -164.7345         estimate D2E/DX2                !
 ! D113  D(20,23,30,32)        -50.609          estimate D2E/DX2                !
 ! D114  D(20,23,30,75)         72.6954         estimate D2E/DX2                !
 ! D115  D(24,23,30,31)        -48.6159         estimate D2E/DX2                !
 ! D116  D(24,23,30,32)         65.5096         estimate D2E/DX2                !
 ! D117  D(24,23,30,75)       -171.1861         estimate D2E/DX2                !
 ! D118  D(27,23,30,31)         70.175          estimate D2E/DX2                !
 ! D119  D(27,23,30,32)       -175.6995         estimate D2E/DX2                !
 ! D120  D(27,23,30,75)        -52.3952         estimate D2E/DX2                !
 ! D121  D(17,25,33,34)        169.3235         estimate D2E/DX2                !
 ! D122  D(17,25,33,35)         55.2976         estimate D2E/DX2                !
 ! D123  D(17,25,33,79)        -67.6816         estimate D2E/DX2                !
 ! D124  D(26,25,33,34)         54.7699         estimate D2E/DX2                !
 ! D125  D(26,25,33,35)        -59.256          estimate D2E/DX2                !
 ! D126  D(26,25,33,79)        177.7648         estimate D2E/DX2                !
 ! D127  D(36,25,33,34)        -64.2653         estimate D2E/DX2                !
 ! D128  D(36,25,33,35)       -178.2912         estimate D2E/DX2                !
 ! D129  D(36,25,33,79)         58.7296         estimate D2E/DX2                !
 ! D130  D(17,25,36,37)         62.1024         estimate D2E/DX2                !
 ! D131  D(17,25,36,38)        -52.9619         estimate D2E/DX2                !
 ! D132  D(17,25,36,83)       -174.5858         estimate D2E/DX2                !
 ! D133  D(26,25,36,37)        178.0739         estimate D2E/DX2                !
 ! D134  D(26,25,36,38)         63.0097         estimate D2E/DX2                !
 ! D135  D(26,25,36,83)        -58.6142         estimate D2E/DX2                !
 ! D136  D(33,25,36,37)        -63.5651         estimate D2E/DX2                !
 ! D137  D(33,25,36,38)       -178.6294         estimate D2E/DX2                !
 ! D138  D(33,25,36,83)         59.7467         estimate D2E/DX2                !
 ! D139  D(23,27,71,72)         64.2076         estimate D2E/DX2                !
 ! D140  D(23,27,71,73)       -175.7179         estimate D2E/DX2                !
 ! D141  D(23,27,71,74)        -56.0438         estimate D2E/DX2                !
 ! D142  D(28,27,71,72)       -174.8526         estimate D2E/DX2                !
 ! D143  D(28,27,71,73)        -54.7781         estimate D2E/DX2                !
 ! D144  D(28,27,71,74)         64.896          estimate D2E/DX2                !
 ! D145  D(29,27,71,72)        -59.3567         estimate D2E/DX2                !
 ! D146  D(29,27,71,73)         60.7179         estimate D2E/DX2                !
 ! D147  D(29,27,71,74)       -179.6081         estimate D2E/DX2                !
 ! D148  D(23,30,75,76)         66.2077         estimate D2E/DX2                !
 ! D149  D(23,30,75,77)       -173.9917         estimate D2E/DX2                !
 ! D150  D(23,30,75,78)        -54.2869         estimate D2E/DX2                !
 ! D151  D(31,30,75,76)        -56.2889         estimate D2E/DX2                !
 ! D152  D(31,30,75,77)         63.5118         estimate D2E/DX2                !
 ! D153  D(31,30,75,78)       -176.7834         estimate D2E/DX2                !
 ! D154  D(32,30,75,76)       -171.022          estimate D2E/DX2                !
 ! D155  D(32,30,75,77)        -51.2213         estimate D2E/DX2                !
 ! D156  D(32,30,75,78)         68.4835         estimate D2E/DX2                !
 ! D157  D(25,33,79,80)         59.8603         estimate D2E/DX2                !
 ! D158  D(25,33,79,81)        179.2901         estimate D2E/DX2                !
 ! D159  D(25,33,79,82)        -61.2383         estimate D2E/DX2                !
 ! D160  D(34,33,79,80)       -177.3824         estimate D2E/DX2                !
 ! D161  D(34,33,79,81)        -57.9526         estimate D2E/DX2                !
 ! D162  D(34,33,79,82)         61.519          estimate D2E/DX2                !
 ! D163  D(35,33,79,80)        -62.5082         estimate D2E/DX2                !
 ! D164  D(35,33,79,81)         56.9216         estimate D2E/DX2                !
 ! D165  D(35,33,79,82)        176.3932         estimate D2E/DX2                !
 ! D166  D(25,36,83,84)        174.7668         estimate D2E/DX2                !
 ! D167  D(25,36,83,85)        -65.1439         estimate D2E/DX2                !
 ! D168  D(25,36,83,86)         55.1338         estimate D2E/DX2                !
 ! D169  D(37,36,83,84)        -61.8882         estimate D2E/DX2                !
 ! D170  D(37,36,83,85)         58.2011         estimate D2E/DX2                !
 ! D171  D(37,36,83,86)        178.4789         estimate D2E/DX2                !
 ! D172  D(38,36,83,84)         53.3759         estimate D2E/DX2                !
 ! D173  D(38,36,83,85)        173.4652         estimate D2E/DX2                !
 ! D174  D(38,36,83,86)        -66.257          estimate D2E/DX2                !
 ! D175  D(5,39,87,43)         179.8299         estimate D2E/DX2                !
 ! D176  D(5,39,87,89)          -0.1934         estimate D2E/DX2                !
 ! D177  D(41,39,87,43)          0.8425         estimate D2E/DX2                !
 ! D178  D(41,39,87,89)       -179.1808         estimate D2E/DX2                !
 ! D179  D(2,40,88,90)           0.013          estimate D2E/DX2                !
 ! D180  D(2,40,88,91)         179.9884         estimate D2E/DX2                !
 ! D181  D(42,40,88,90)        179.9958         estimate D2E/DX2                !
 ! D182  D(42,40,88,91)         -0.0288         estimate D2E/DX2                !
 ! D183  D(45,43,44,46)         -0.4872         estimate D2E/DX2                !
 ! D184  D(45,43,44,47)       -179.4113         estimate D2E/DX2                !
 ! D185  D(87,43,44,46)        179.4307         estimate D2E/DX2                !
 ! D186  D(87,43,44,47)          0.5066         estimate D2E/DX2                !
 ! D187  D(44,43,45,48)          0.7031         estimate D2E/DX2                !
 ! D188  D(87,43,45,48)       -179.2222         estimate D2E/DX2                !
 ! D189  D(44,43,87,39)       -166.2129         estimate D2E/DX2                !
 ! D190  D(44,43,87,89)         13.8122         estimate D2E/DX2                !
 ! D191  D(45,43,87,39)         13.6977         estimate D2E/DX2                !
 ! D192  D(45,43,87,89)       -166.2772         estimate D2E/DX2                !
 ! D193  D(43,44,46,48)         -0.0852         estimate D2E/DX2                !
 ! D194  D(43,44,46,49)       -179.5844         estimate D2E/DX2                !
 ! D195  D(47,44,46,48)        178.8309         estimate D2E/DX2                !
 ! D196  D(47,44,46,49)         -0.6683         estimate D2E/DX2                !
 ! D197  D(43,45,48,46)         -0.7437         estimate D2E/DX2                !
 ! D198  D(43,45,48,50)        179.6718         estimate D2E/DX2                !
 ! D199  D(44,46,48,45)          0.6071         estimate D2E/DX2                !
 ! D200  D(44,46,48,50)       -179.8345         estimate D2E/DX2                !
 ! D201  D(49,46,48,45)       -179.8809         estimate D2E/DX2                !
 ! D202  D(49,46,48,50)         -0.3225         estimate D2E/DX2                !
 ! D203  D(45,48,50,51)        179.136          estimate D2E/DX2                !
 ! D204  D(45,48,50,52)         -0.9968         estimate D2E/DX2                !
 ! D205  D(46,48,50,51)         -0.3704         estimate D2E/DX2                !
 ! D206  D(46,48,50,52)        179.4968         estimate D2E/DX2                !
 ! D207  D(48,50,51,53)        179.913          estimate D2E/DX2                !
 ! D208  D(48,50,51,58)         -0.1151         estimate D2E/DX2                !
 ! D209  D(52,50,51,53)          0.0322         estimate D2E/DX2                !
 ! D210  D(52,50,51,58)       -179.9959         estimate D2E/DX2                !
 ! D211  D(48,50,52,54)       -179.946          estimate D2E/DX2                !
 ! D212  D(48,50,52,60)          0.1673         estimate D2E/DX2                !
 ! D213  D(51,50,52,54)         -0.0662         estimate D2E/DX2                !
 ! D214  D(51,50,52,60)       -179.9529         estimate D2E/DX2                !
 ! D215  D(50,51,53,55)         -0.0377         estimate D2E/DX2                !
 ! D216  D(50,51,53,57)        179.9851         estimate D2E/DX2                !
 ! D217  D(58,51,53,55)        179.987          estimate D2E/DX2                !
 ! D218  D(58,51,53,57)          0.0098         estimate D2E/DX2                !
 ! D219  D(50,51,58,56)       -179.9771         estimate D2E/DX2                !
 ! D220  D(53,51,58,56)         -0.0029         estimate D2E/DX2                !
 ! D221  D(50,52,54,55)          0.1108         estimate D2E/DX2                !
 ! D222  D(50,52,54,59)       -179.9405         estimate D2E/DX2                !
 ! D223  D(60,52,54,55)       -179.9972         estimate D2E/DX2                !
 ! D224  D(60,52,54,59)         -0.0485         estimate D2E/DX2                !
 ! D225  D(51,53,55,54)          0.0667         estimate D2E/DX2                !
 ! D226  D(51,53,55,61)       -179.982          estimate D2E/DX2                !
 ! D227  D(57,53,55,54)       -179.9586         estimate D2E/DX2                !
 ! D228  D(57,53,55,61)         -0.0073         estimate D2E/DX2                !
 ! D229  D(51,53,57,56)         -0.0115         estimate D2E/DX2                !
 ! D230  D(55,53,57,56)       -179.9885         estimate D2E/DX2                !
 ! D231  D(52,54,55,53)         -0.1002         estimate D2E/DX2                !
 ! D232  D(52,54,55,61)        179.9486         estimate D2E/DX2                !
 ! D233  D(59,54,55,53)        179.9544         estimate D2E/DX2                !
 ! D234  D(59,54,55,61)          0.0032         estimate D2E/DX2                !
 ! D235  D(53,55,61,62)        179.7484         estimate D2E/DX2                !
 ! D236  D(53,55,61,63)         -0.2508         estimate D2E/DX2                !
 ! D237  D(54,55,61,62)         -0.3057         estimate D2E/DX2                !
 ! D238  D(54,55,61,63)        179.6951         estimate D2E/DX2                !
 ! D239  D(58,56,57,53)          0.0088         estimate D2E/DX2                !
 ! D240  D(57,56,58,51)         -0.0033         estimate D2E/DX2                !
 ! D241  D(55,61,62,64)        179.9928         estimate D2E/DX2                !
 ! D242  D(55,61,62,65)         -0.016          estimate D2E/DX2                !
 ! D243  D(63,61,62,64)         -0.0079         estimate D2E/DX2                !
 ! D244  D(63,61,62,65)        179.9833         estimate D2E/DX2                !
 ! D245  D(55,61,63,66)       -179.986          estimate D2E/DX2                !
 ! D246  D(62,61,63,66)          0.0146         estimate D2E/DX2                !
 ! D247  D(61,62,64,66)         -0.0057         estimate D2E/DX2                !
 ! D248  D(61,62,64,67)        179.9905         estimate D2E/DX2                !
 ! D249  D(65,62,64,66)       -179.9968         estimate D2E/DX2                !
 ! D250  D(65,62,64,67)         -0.0006         estimate D2E/DX2                !
 ! D251  D(61,63,66,64)         -0.018          estimate D2E/DX2                !
 ! D252  D(61,63,66,68)        179.9801         estimate D2E/DX2                !
 ! D253  D(62,64,66,63)          0.0167         estimate D2E/DX2                !
 ! D254  D(62,64,66,68)       -179.9811         estimate D2E/DX2                !
 ! D255  D(67,64,66,63)       -179.9795         estimate D2E/DX2                !
 ! D256  D(67,64,66,68)          0.0226         estimate D2E/DX2                !
 ! D257  D(63,66,68,69)         57.2566         estimate D2E/DX2                !
 ! D258  D(63,66,68,70)        -57.6742         estimate D2E/DX2                !
 ! D259  D(63,66,68,94)        179.7932         estimate D2E/DX2                !
 ! D260  D(64,66,68,69)       -122.7457         estimate D2E/DX2                !
 ! D261  D(64,66,68,70)        122.3235         estimate D2E/DX2                !
 ! D262  D(64,66,68,94)         -0.2091         estimate D2E/DX2                !
 ! D263  D(66,68,94,95)       -179.9752         estimate D2E/DX2                !
 ! D264  D(66,68,94,96)        -60.2886         estimate D2E/DX2                !
 ! D265  D(66,68,94,97)         60.3444         estimate D2E/DX2                !
 ! D266  D(69,68,94,95)        -57.6509         estimate D2E/DX2                !
 ! D267  D(69,68,94,96)         62.0356         estimate D2E/DX2                !
 ! D268  D(69,68,94,97)       -177.3313         estimate D2E/DX2                !
 ! D269  D(70,68,94,95)         57.704          estimate D2E/DX2                !
 ! D270  D(70,68,94,96)        177.3905         estimate D2E/DX2                !
 ! D271  D(70,68,94,97)        -61.9764         estimate D2E/DX2                !
 ! D272  D(39,87,89,6)           0.4825         estimate D2E/DX2                !
 ! D273  D(43,87,89,6)        -179.5385         estimate D2E/DX2                !
 ! D274  D(40,88,90,1)           0.024          estimate D2E/DX2                !
 ! D275  D(91,88,90,1)        -179.9541         estimate D2E/DX2                !
 ! D276  D(40,88,91,92)        122.6757         estimate D2E/DX2                !
 ! D277  D(40,88,91,93)       -122.4353         estimate D2E/DX2                !
 ! D278  D(40,88,91,98)          0.1179         estimate D2E/DX2                !
 ! D279  D(90,88,91,92)        -57.3506         estimate D2E/DX2                !
 ! D280  D(90,88,91,93)         57.5384         estimate D2E/DX2                !
 ! D281  D(90,88,91,98)       -179.9084         estimate D2E/DX2                !
 ! D282  D(88,91,98,99)        -60.3809         estimate D2E/DX2                !
 ! D283  D(88,91,98,100)        60.3352         estimate D2E/DX2                !
 ! D284  D(88,91,98,101)       179.9794         estimate D2E/DX2                !
 ! D285  D(92,91,98,99)        177.3226         estimate D2E/DX2                !
 ! D286  D(92,91,98,100)       -61.9613         estimate D2E/DX2                !
 ! D287  D(92,91,98,101)        57.6829         estimate D2E/DX2                !
 ! D288  D(93,91,98,99)         61.9094         estimate D2E/DX2                !
 ! D289  D(93,91,98,100)      -177.3745         estimate D2E/DX2                !
 ! D290  D(93,91,98,101)       -57.7303         estimate D2E/DX2                !
 --------------------------------------------------------------------------------
 Trust Radius=3.00D-01 FncErr=1.00D-07 GrdErr=1.00D-06 EigMax=2.50D+02 EigMin=1.00D-04
 Number of steps in this run=    605 maximum allowed number of steps=    606.
 GradGradGradGradGradGradGradGradGradGradGradGradGradGradGradGradGradGrad

 Stoichiometry    C45H44F2N4OS5(1+,2)
 Framework group  C1[X(C45H44F2N4OS5)]
 Deg. of freedom   297
 Full point group                 C1      NOp   1
 Largest Abelian subgroup         C1      NOp   1
 Largest concise Abelian subgroup C1      NOp   1
                         Standard orientation:                         
 ---------------------------------------------------------------------
 Center     Atomic      Atomic             Coordinates (Angstroms)
 Number     Number       Type             X           Y           Z
 ---------------------------------------------------------------------
      1          6           0        3.879195   -3.371689   -0.411586
      2          6           0        4.989474   -2.528381   -0.392122
      3          6           0        4.822552   -1.110998   -0.236538
      4          6           0        3.506521   -0.577765   -0.098929
      5          6           0        2.383981   -1.474212   -0.127144
      6          6           0        2.583231   -2.849166   -0.278999
      7          1           0        6.939609   -0.641002   -0.305716
      8          6           0        5.936864   -0.242957   -0.214037
      9          6           0        3.323073    0.813637    0.056499
     10          6           0        4.421266    1.633429    0.070707
     11          6           0        5.729768    1.103212   -0.063796
     12          1           0        2.325938    1.223400    0.154438
     13          6           0        5.895408    3.353246    0.157018
     14          7           0        6.603371    2.171778   -0.006369
     15          7           0        4.554160    3.002150    0.203258
     16          8           0        6.357644    4.471169    0.241831
     17          6           0        8.044757    2.165112   -0.143689
     18          1           0        8.320807    1.250314   -0.676259
     19          1           0        8.309974    3.014241   -0.780828
     20          6           0        3.522336    3.999010    0.405073
     21          1           0        2.645685    3.496797    0.824731
     22          1           0        3.895441    4.694317    1.162631
     23          6           0        3.169820    4.786263   -0.861364
     24          1           0        4.123498    5.164037   -1.252343
     25          6           0        8.792955    2.284310    1.188146
     26          1           0        8.396295    3.184432    1.676069
     27          6           0        2.319135    6.001577   -0.483039
     28          1           0        2.853094    6.565833    0.290776
     29          1           0        1.381106    5.669478   -0.019596
     30          6           0        2.539252    3.902877   -1.946000
     31          1           0        2.564147    4.443664   -2.898195
     32          1           0        3.177490    3.024288   -2.094071
     33          6           0       10.285890    2.538227    0.937542
     34          1           0       10.758886    2.807939    1.887407
     35          1           0       10.379656    3.426362    0.301165
     36          6           0        8.511860    1.089963    2.102426
     37          1           0        8.867421    0.167569    1.624461
     38          1           0        7.426888    0.975035    2.200743
     39          6           0        1.002302   -1.161725   -0.006600
     40          6           0        6.205335   -3.267201   -0.542380
     41          1           0        0.615457   -0.161158    0.140607
     42          1           0        7.188082   -2.814482   -0.556060
     43          6           0       -1.258870   -2.298426    0.018843
     44          6           0       -2.071793   -3.393569    0.212452
     45         16           0       -2.203240   -0.853983   -0.118041
     46          6           0       -3.437205   -3.076153    0.261449
     47          1           0       -1.686204   -4.398438    0.333066
     48          6           0       -3.701682   -1.728511    0.108141
     49          1           0       -4.224155   -3.799503    0.412282
     50          6           0       -4.991795   -1.076709    0.113235
     51          6           0       -6.233583   -1.783592    0.279927
     52          6           0       -5.170177    0.280769   -0.037066
     53          6           0       -7.510212   -1.095271    0.281604
     54          6           0       -6.415369    0.947833   -0.035577
     55          6           0       -7.634421    0.325864    0.120173
     56         16           0       -7.945952   -3.419541    0.588168
     57          7           0       -8.538480   -1.915363    0.447465
     58          7           0       -6.360929   -3.094544    0.445005
     59          9           0       -6.331938    2.270144   -0.200000
     60          9           0       -4.111114    1.079298   -0.203558
     61          6           0       -8.903196    1.024946    0.120433
     62          6           0       -9.132189    2.379060   -0.021279
     63         16           0      -10.429611    0.192168    0.313999
     64          6           0      -10.496336    2.731959    0.024869
     65          1           0       -8.340430    3.099433   -0.154712
     66          6           0      -11.329834    1.660992    0.201442
     67          1           0      -10.848778    3.751038   -0.070159
     68          6           0      -12.824274    1.634273    0.299278
     69          1           0      -13.113382    1.170881    1.250399
     70          1           0      -13.223375    0.977098   -0.482918
     71          6           0        2.013523    6.930112   -1.650566
     72          1           0        1.401511    6.441048   -2.413815
     73          1           0        1.470147    7.817109   -1.314405
     74          1           0        2.936009    7.268662   -2.132850
     75          6           0        1.108038    3.453022   -1.671907
     76          1           0        0.408464    4.293598   -1.674018
     77          1           0        0.772215    2.746127   -2.434769
     78          1           0        1.006956    2.953314   -0.702964
     79          6           0       11.056401    1.382200    0.307642
     80          1           0       10.653353    1.100112   -0.669852
     81          1           0       12.103583    1.656506    0.155350
     82          1           0       11.043282    0.490596    0.941326
     83          6           0        9.123576    1.213402    3.491760
     84          1           0        8.816592    0.381128    4.130502
     85          1           0       10.216949    1.215802    3.460331
     86          1           0        8.804830    2.140370    3.979336
     87          6           0        0.175718   -2.250947   -0.070137
     88          6           0        6.029039   -4.608876   -0.668929
     89         16           0        1.090328   -3.726811   -0.290374
     90         16           0        4.336138   -5.032972   -0.608833
     91          6           0        7.052496   -5.686619   -0.842317
     92          1           0        6.943468   -6.417149   -0.031314
     93          1           0        6.839201   -6.236821   -1.767017
     94          6           0      -13.470372    3.007780    0.186690
     95          1           0      -14.556637    2.924617    0.265379
     96          1           0      -13.127375    3.674659    0.982275
     97          1           0      -13.239625    3.478110   -0.772940
     98          6           0        8.485053   -5.173958   -0.875132
     99          1           0        8.638769   -4.477691   -1.703993
    100          1           0        8.744075   -4.659605    0.054272
    101          1           0        9.182855   -6.004420   -1.002911
 ---------------------------------------------------------------------
 Rotational constants (GHZ):           0.0614656           0.0132989           0.0111957
 Standard basis: 6-311G(d,p) (5D, 7F)
 There are  1387 symmetry adapted cartesian basis functions of A   symmetry.
 There are  1330 symmetry adapted basis functions of A   symmetry.
  1330 basis functions,  2246 primitive gaussians,  1387 cartesian basis functions
   224 alpha electrons      223 beta electrons
       nuclear repulsion energy      8451.4695606130 Hartrees.
 NAtoms=  101 NActive=  101 NUniq=  101 SFac= 1.00D+00 NAtFMM=   60 NAOKFM=T Big=T
 Integral buffers will be    131072 words long.
 Raffenetti 2 integral format.
 Two-electron integral symmetry is turned on.
 One-electron integrals computed using PRISM.
 NBasis=  1330 RedAO= T EigKep=  4.25D-05  NBF=  1330
 NBsUse=  1330 1.00D-06 EigRej= -1.00D+00 NBFU=  1330
 ExpMin= 7.71D-02 ExpMax= 9.34D+04 ExpMxC= 3.17D+03 IAcc=3 IRadAn=         5 AccDes= 0.00D+00
 Harris functional with IExCor= 1009 and IRadAn=       5 diagonalized for initial guess.
 HarFok:  IExCor= 1009 AccDes= 0.00D+00 IRadAn=         5 IDoV= 1 UseB2=F ITyADJ=14
 ICtDFT=  3500011 ScaDFX=  1.000000  1.000000  1.000000  1.000000
 FoFCou: FMM=F IPFlag=           0 FMFlag=      100000 FMFlg1=        2001
         NFxFlg=           0 DoJE=T BraDBF=F KetDBF=T FulRan=T
         wScrn=  0.000000 ICntrl=       500 IOpCl=  0 I1Cent=   200000004 NGrid=           0
         NMat0=    1 NMatS0=      1 NMatT0=    0 NMatD0=    1 NMtDS0=    0 NMtDT0=    0
 Petite list used in FoFCou.
 Initial guess <Sx>= 0.0000 <Sy>= 0.0000 <Sz>= 0.5000 <S**2>= 0.7500 S= 0.5000
 Requested convergence on RMS density matrix=1.00D-08 within 128 cycles.
 Requested convergence on MAX density matrix=1.00D-06.
 Requested convergence on             energy=1.00D-06.
 No special actions if energy rises.
 Integral accuracy reduced to 1.0D-05 until final iterations.
 EnCoef did     2 forward-backward iterations
 Problem detected with inexpensive integrals.
 Switching to full accuracy and repeating last cycle.
 EnCoef did    11 forward-backward iterations
 EnCoef did   100 forward-backward iterations
 Restarting incremental Fock formation.
 SCF Done:  E(UHSEH1PBE) =  -4223.59309875     A.U. after   33 cycles
            NFock= 33  Conv=0.67D-08     -V/T= 2.0025
 <Sx>= 0.0000 <Sy>= 0.0000 <Sz>= 0.5000 <S**2>= 0.7652 S= 0.5076
 <L.S>=  0.00000000000    
 Annihilation of the first spin contaminant:
 S**2 before annihilation     0.7652,   after     0.7502
 Hyperfine terms turned off by default for NAtoms > 100.

 **********************************************************************

            Population analysis using the SCF Density.

 **********************************************************************

 Orbital symmetries:
 Alpha Orbitals:
       Occupied  (A) (A) (A) (A) (A) (A) (A) (A) (A) (A) (A) (A)
                 (A) (A) (A) (A) (A) (A) (A) (A) (A) (A) (A) (A)
                 (A) (A) (A) (A) (A) (A) (A) (A) (A) (A) (A) (A)
                 (A) (A) (A) (A) (A) (A) (A) (A) (A) (A) (A) (A)
                 (A) (A) (A) (A) (A) (A) (A) (A) (A) (A) (A) (A)
                 (A) (A) (A) (A) (A) (A) (A) (A) (A) (A) (A) (A)
                 (A) (A) (A) (A) (A) (A) (A) (A) (A) (A) (A) (A)
                 (A) (A) (A) (A) (A) (A) (A) (A) (A) (A) (A) (A)
                 (A) (A) (A) (A) (A) (A) (A) (A) (A) (A) (A) (A)
                 (A) (A) (A) (A) (A) (A) (A) (A) (A) (A) (A) (A)
                 (A) (A) (A) (A) (A) (A) (A) (A) (A) (A) (A) (A)
                 (A) (A) (A) (A) (A) (A) (A) (A) (A) (A) (A) (A)
                 (A) (A) (A) (A) (A) (A) (A) (A) (A) (A) (A) (A)
                 (A) (A) (A) (A) (A) (A) (A) (A) (A) (A) (A) (A)
                 (A) (A) (A) (A) (A) (A) (A) (A) (A) (A) (A) (A)
                 (A) (A) (A) (A) (A) (A) (A) (A) (A) (A) (A) (A)
                 (A) (A) (A) (A) (A) (A) (A) (A) (A) (A) (A) (A)
                 (A) (A) (A) (A) (A) (A) (A) (A) (A) (A) (A) (A)
                 (A) (A) (A) (A) (A) (A) (A) (A)
       Virtual   (A) (A) (A) (A) (A) (A) (A) (A) (A) (A) (A) (A)
                 (A) (A) (A) (A) (A) (A) (A) (A) (A) (A) (A) (A)
                 (A) (A) (A) (A) (A) (A) (A) (A) (A) (A) (A) (A)
                 (A) (A) (A) (A) (A) (A) (A) (A) (A) (A) (A) (A)
                 (A) (A) (A) (A) (A) (A) (A) (A) (A) (A) (A) (A)
                 (A) (A) (A) (A) (A) (A) (A) (A) (A) (A) (A) (A)
                 (A) (A) (A) (A) (A) (A) (A) (A) (A) (A) (A) (A)
                 (A) (A) (A) (A) (A) (A) (A) (A) (A) (A) (A) (A)
                 (A) (A) (A) (A) (A) (A) (A) (A) (A) (A) (A) (A)
                 (A) (A) (A) (A) (A) (A) (A) (A) (A) (A) (A) (A)
                 (A) (A) (A) (A) (A) (A) (A) (A) (A) (A) (A) (A)
                 (A) (A) (A) (A) (A) (A) (A) (A) (A) (A) (A) (A)
                 (A) (A) (A) (A) (A) (A) (A) (A) (A) (A) (A) (A)
                 (A) (A) (A) (A) (A) (A) (A) (A) (A) (A) (A) (A)
                 (A) (A) (A) (A) (A) (A) (A) (A) (A) (A) (A) (A)
                 (A) (A) (A) (A) (A) (A) (A) (A) (A) (A) (A) (A)
                 (A) (A) (A) (A) (A) (A) (A) (A) (A) (A) (A) (A)
                 (A) (A) (A) (A) (A) (A) (A) (A) (A) (A) (A) (A)
                 (A) (A) (A) (A) (A) (A) (A) (A) (A) (A) (A) (A)
                 (A) (A) (A) (A) (A) (A) (A) (A) (A) (A) (A) (A)
                 (A) (A) (A) (A) (A) (A) (A) (A) (A) (A) (A) (A)
                 (A) (A) (A) (A) (A) (A) (A) (A) (A) (A) (A) (A)
                 (A) (A) (A) (A) (A) (A) (A) (A) (A) (A) (A) (A)
                 (A) (A) (A) (A) (A) (A) (A) (A) (A) (A) (A) (A)
                 (A) (A) (A) (A) (A) (A) (A) (A) (A) (A) (A) (A)
                 (A) (A) (A) (A) (A) (A) (A) (A) (A) (A) (A) (A)
                 (A) (A) (A) (A) (A) (A) (A) (A) (A) (A) (A) (A)
                 (A) (A) (A) (A) (A) (A) (A) (A) (A) (A) (A) (A)
                 (A) (A) (A) (A) (A) (A) (A) (A) (A) (A) (A) (A)
                 (A) (A) (A) (A) (A) (A) (A) (A) (A) (A) (A) (A)
                 (A) (A) (A) (A) (A) (A) (A) (A) (A) (A) (A) (A)
                 (A) (A) (A) (A) (A) (A) (A) (A) (A) (A) (A) (A)
                 (A) (A) (A) (A) (A) (A) (A) (A) (A) (A) (A) (A)
                 (A) (A) (A) (A) (A) (A) (A) (A) (A) (A) (A) (A)
                 (A) (A) (A) (A) (A) (A) (A) (A) (A) (A) (A) (A)
                 (A) (A) (A) (A) (A) (A) (A) (A) (A) (A) (A) (A)
                 (A) (A) (A) (A) (A) (A) (A) (A) (A) (A) (A) (A)
                 (A) (A) (A) (A) (A) (A) (A) (A) (A) (A) (A) (A)
                 (A) (A) (A) (A) (A) (A) (A) (A) (A) (A) (A) (A)
                 (A) (A) (A) (A) (A) (A) (A) (A) (A) (A) (A) (A)
                 (A) (A) (A) (A) (A) (A) (A) (A) (A) (A) (A) (A)
                 (A) (A) (A) (A) (A) (A) (A) (A) (A) (A) (A) (A)
                 (A) (A) (A) (A) (A) (A) (A) (A) (A) (A) (A) (A)
                 (A) (A) (A) (A) (A) (A) (A) (A) (A) (A) (A) (A)
                 (A) (A) (A) (A) (A) (A) (A) (A) (A) (A) (A) (A)
                 (A) (A) (A) (A) (A) (A) (A) (A) (A) (A) (A) (A)
                 (A) (A) (A) (A) (A) (A) (A) (A) (A) (A) (A) (A)
                 (A) (A) (A) (A) (A) (A) (A) (A) (A) (A) (A) (A)
                 (A) (A) (A) (A) (A) (A) (A) (A) (A) (A) (A) (A)
                 (A) (A) (A) (A) (A) (A) (A) (A) (A) (A) (A) (A)
                 (A) (A) (A) (A) (A) (A) (A) (A) (A) (A) (A) (A)
                 (A) (A) (A) (A) (A) (A) (A) (A) (A) (A) (A) (A)
                 (A) (A) (A) (A) (A) (A) (A) (A) (A) (A) (A) (A)
                 (A) (A) (A) (A) (A) (A) (A) (A) (A) (A) (A) (A)
                 (A) (A) (A) (A) (A) (A) (A) (A) (A) (A) (A) (A)
                 (A) (A) (A) (A) (A) (A) (A) (A) (A) (A) (A) (A)
                 (A) (A) (A) (A) (A) (A) (A) (A) (A) (A) (A) (A)
                 (A) (A) (A) (A) (A) (A) (A) (A) (A) (A) (A) (A)
                 (A) (A) (A) (A) (A) (A) (A) (A) (A) (A) (A) (A)
                 (A) (A) (A) (A) (A) (A) (A) (A) (A) (A) (A) (A)
                 (A) (A) (A) (A) (A) (A) (A) (A) (A) (A) (A) (A)
                 (A) (A) (A) (A) (A) (A) (A) (A) (A) (A) (A) (A)
                 (A) (A) (A) (A) (A) (A) (A) (A) (A) (A) (A) (A)
                 (A) (A) (A) (A) (A) (A) (A) (A) (A) (A) (A) (A)
                 (A) (A) (A) (A) (A) (A) (A) (A) (A) (A) (A) (A)
                 (A) (A) (A) (A) (A) (A) (A) (A) (A) (A) (A) (A)
                 (A) (A) (A) (A) (A) (A) (A) (A) (A) (A) (A) (A)
                 (A) (A) (A) (A) (A) (A) (A) (A) (A) (A) (A) (A)
                 (A) (A) (A) (A) (A) (A) (A) (A) (A) (A) (A) (A)
                 (A) (A) (A) (A) (A) (A) (A) (A) (A) (A) (A) (A)
                 (A) (A) (A) (A) (A) (A) (A) (A) (A) (A) (A) (A)
                 (A) (A) (A) (A) (A) (A) (A) (A) (A) (A) (A) (A)
                 (A) (A) (A) (A) (A) (A) (A) (A) (A) (A) (A) (A)
                 (A) (A) (A) (A) (A) (A) (A) (A) (A) (A) (A) (A)
                 (A) (A) (A) (A) (A) (A) (A) (A) (A) (A) (A) (A)
                 (A) (A) (A) (A) (A) (A) (A) (A) (A) (A) (A) (A)
                 (A) (A) (A) (A) (A) (A) (A) (A) (A) (A) (A) (A)
                 (A) (A) (A) (A) (A) (A) (A) (A) (A) (A) (A) (A)
                 (A) (A) (A) (A) (A) (A) (A) (A) (A) (A) (A) (A)
                 (A) (A) (A) (A) (A) (A) (A) (A) (A) (A) (A) (A)
                 (A) (A) (A) (A) (A) (A) (A) (A) (A) (A) (A) (A)
                 (A) (A) (A) (A) (A) (A) (A) (A) (A) (A) (A) (A)
                 (A) (A) (A) (A) (A) (A) (A) (A) (A) (A) (A) (A)
                 (A) (A) (A) (A) (A) (A) (A) (A) (A) (A) (A) (A)
                 (A) (A) (A) (A) (A) (A) (A) (A) (A) (A) (A) (A)
                 (A) (A) (A) (A) (A) (A) (A) (A) (A) (A) (A) (A)
                 (A) (A) (A) (A) (A) (A) (A) (A) (A) (A) (A) (A)
                 (A) (A) (A) (A) (A) (A) (A) (A) (A) (A) (A) (A)
                 (A) (A) (A) (A) (A) (A) (A) (A) (A) (A) (A) (A)
                 (A) (A) (A) (A) (A) (A) (A) (A) (A) (A) (A) (A)
                 (A) (A) (A) (A) (A) (A) (A) (A) (A) (A) (A) (A)
                 (A) (A) (A) (A) (A) (A) (A) (A) (A) (A) (A) (A)
                 (A) (A)
 Beta  Orbitals:
       Occupied  (A) (A) (A) (A) (A) (A) (A) (A) (A) (A) (A) (A)
                 (A) (A) (A) (A) (A) (A) (A) (A) (A) (A) (A) (A)
                 (A) (A) (A) (A) (A) (A) (A) (A) (A) (A) (A) (A)
                 (A) (A) (A) (A) (A) (A) (A) (A) (A) (A) (A) (A)
                 (A) (A) (A) (A) (A) (A) (A) (A) (A) (A) (A) (A)
                 (A) (A) (A) (A) (A) (A) (A) (A) (A) (A) (A) (A)
                 (A) (A) (A) (A) (A) (A) (A) (A) (A) (A) (A) (A)
                 (A) (A) (A) (A) (A) (A) (A) (A) (A) (A) (A) (A)
                 (A) (A) (A) (A) (A) (A) (A) (A) (A) (A) (A) (A)
                 (A) (A) (A) (A) (A) (A) (A) (A) (A) (A) (A) (A)
                 (A) (A) (A) (A) (A) (A) (A) (A) (A) (A) (A) (A)
                 (A) (A) (A) (A) (A) (A) (A) (A) (A) (A) (A) (A)
                 (A) (A) (A) (A) (A) (A) (A) (A) (A) (A) (A) (A)
                 (A) (A) (A) (A) (A) (A) (A) (A) (A) (A) (A) (A)
                 (A) (A) (A) (A) (A) (A) (A) (A) (A) (A) (A) (A)
                 (A) (A) (A) (A) (A) (A) (A) (A) (A) (A) (A) (A)
                 (A) (A) (A) (A) (A) (A) (A) (A) (A) (A) (A) (A)
                 (A) (A) (A) (A) (A) (A) (A) (A) (A) (A) (A) (A)
                 (A) (A) (A) (A) (A) (A) (A)
       Virtual   (A) (A) (A) (A) (A) (A) (A) (A) (A) (A) (A) (A)
                 (A) (A) (A) (A) (A) (A) (A) (A) (A) (A) (A) (A)
                 (A) (A) (A) (A) (A) (A) (A) (A) (A) (A) (A) (A)
                 (A) (A) (A) (A) (A) (A) (A) (A) (A) (A) (A) (A)
                 (A) (A) (A) (A) (A) (A) (A) (A) (A) (A) (A) (A)
                 (A) (A) (A) (A) (A) (A) (A) (A) (A) (A) (A) (A)
                 (A) (A) (A) (A) (A) (A) (A) (A) (A) (A) (A) (A)
                 (A) (A) (A) (A) (A) (A) (A) (A) (A) (A) (A) (A)
                 (A) (A) (A) (A) (A) (A) (A) (A) (A) (A) (A) (A)
                 (A) (A) (A) (A) (A) (A) (A) (A) (A) (A) (A) (A)
                 (A) (A) (A) (A) (A) (A) (A) (A) (A) (A) (A) (A)
                 (A) (A) (A) (A) (A) (A) (A) (A) (A) (A) (A) (A)
                 (A) (A) (A) (A) (A) (A) (A) (A) (A) (A) (A) (A)
                 (A) (A) (A) (A) (A) (A) (A) (A) (A) (A) (A) (A)
                 (A) (A) (A) (A) (A) (A) (A) (A) (A) (A) (A) (A)
                 (A) (A) (A) (A) (A) (A) (A) (A) (A) (A) (A) (A)
                 (A) (A) (A) (A) (A) (A) (A) (A) (A) (A) (A) (A)
                 (A) (A) (A) (A) (A) (A) (A) (A) (A) (A) (A) (A)
                 (A) (A) (A) (A) (A) (A) (A) (A) (A) (A) (A) (A)
                 (A) (A) (A) (A) (A) (A) (A) (A) (A) (A) (A) (A)
                 (A) (A) (A) (A) (A) (A) (A) (A) (A) (A) (A) (A)
                 (A) (A) (A) (A) (A) (A) (A) (A) (A) (A) (A) (A)
[...]
 -0.00007471,0.00000631,-0.00000007,0.00000385,0.00000038,-0.00007057,0
 .00007086,-0.00000692,0.00003688,0.00001994,-0.00000034,0.00001833,-0.
 00009357,0.00000778,-0.00000240,0.00003446,-0.00000243,-0.00009034,-0.
 00004086,0.00000100,0.00009408,-0.00001503,0.00000352,0.00000219,0.000
 00627,0.00000033,-0.00001594,-0.00000628,-0.00000035,0.00000541,-0.000
 02031,0.00000091,0.00000460,0.00003059,-0.00000232,0.00001840,0.000018
 20,-0.00000114,-0.00005035,0.00008339,-0.00000762,0.00004887,-0.000076
 51,0.00000683,0.00000988,0.00002325,-0.00000134,-0.00007630,-0.0000385
 5,0.00000091,0.00000113,-0.00000288,0.00000045,0.00002876,0.00005050,-
 0.00000326,-0.00000149,0.00000092,0.00000004,-0.00000630,-0.00001227,0
 .00000099,-0.00000504,0.00000451,-0.00000077,-0.00000501,0.00000466,-0
 .00000022,-0.00000122,0.00000052,-0.00000083,0.00000029,-0.00000026,-0
 .00000063,-0.00000090,0.00000101,0.00000027,0.00000093,-0.00000027,0.0
 0000034,0.00000058,-0.00000003,-0.00000102,-0.00000079,0.00000054,0.00
 000039,-0.00000009,-0.00000014,-0.00000193,0.00000032,-0.00000028,0.00
 000305,0.00000524,-0.00000055,0.00000060,-0.00000178,-0.00000527,-0.00
 001007,0.00000497,0.00000723,0.00000080,-0.00000990,-0.00000192,0.0000
 0934,-0.00000410,0.00001315,0.00000583,-0.00000458,-0.00000302,-0.0000
 0325,0.00000460,0.00000224,0.00000029,0.00000237,0.00000052,-0.0000062
 6,-0.00001439,-0.00001382,-0.00000497,0.00072596,0.00032649,-0.0005453
 2,-0.00002873,-0.00001781,0.00000335,-0.00000061,-0.00010031,0.0000078
 8,-0.00221265,-0.00659793,0.00904437,0.00020414,-0.00023981,0.00023236
 ,-0.00233099,0.00006676,-0.00052199,-0.00000317,-0.00000620,0.00000043
 ,-0.00000347,0.00000113,-0.00000012,0.00000263,0.00000055,0.00000026,0
 .00000258,0.00000042,-0.00000028,-0.02660280,-0.10885398,0.10924412,0.
 00499203,0.01066661,-0.01759653,0.03100194,0.11603513,-0.00000194,0.00
 004591,-0.00005138,-0.00013830,-0.00038882,0.00002627,0.00003293,0.000
 02990,0.00001485,-0.00002139,-0.00002612,0.00000709,0.00005245,0.00005
 424,-0.00000745,-0.00003575,-0.00010062,0.00000356,0.00000135,-0.00004
 319,-0.00001256,0.00005420,-0.00004951,0.00001009,-0.00000867,0.000022
 68,-0.00000194,0.00000312,-0.00000389,-0.00000166,-0.00003785,0.000047
 25,-0.00000389,-0.00000214,0.00000241,-0.00000152,0.00002186,-0.000021
 94,-0.00000577,-0.00003192,-0.00000914,0.00000643,-0.00002189,0.000016
 93,0.00000070,-0.00001138,0.00001498,0.00000462,0.00003567,-0.00002352
 ,0.00001341,0.00000074,-0.00000055,-0.00001529,-0.00000435,0.00000580,
 -0.00000244,0.00001223,-0.00001129,-0.00000025,-0.00000150,0.00000043,
 -0.00000030,0.00000002,0.00000132,0.00000059,0.00000031,0.00000075,-0.
 00000354,0.00000005,-0.00000098,-0.00000105,-0.00000496,0.00000878,-0.
 00002429,-0.00000075,0.00000984,0.00000073,0.00000056,-0.00000060,0.00
 000292,0.00000010,-0.00000100,0.00000060,-0.00000052,0.00000021,-0.000
 00029,0.00000096,0.00000028,0.00000041,-0.00000099,0.00000142,0.000001
 72,0.,0.00000069,-0.00000318,0.00000939,-0.00000487,0.00001587,-0.0000
 0513,0.00000251,-0.00000598,-0.00000390,0.00001174,0.00000102,0.000026
 64,-0.00005250,0.00002959,-0.00001156,0.00001474,-0.00001111,-0.000005
 43,0.00000380,-0.00000574,-0.00002651,-0.00002072,0.00000514,0.0003815
 8,0.00055492,0.00018501,0.00000236,-0.00000081,-0.00000173,0.00008993,
 -0.00052391,-0.00021371,-0.00000648,-0.00000962,0.00000199,0.00001280,
 0.00000756,0.00000022,-0.00000181,-0.00000514,-0.00000004,-0.00001175,
 0.00001139,-0.00000073,0.00000108,0.00000061,-0.00000103,0.00001309,-0
 .00001628,0.00000151,-0.00000010,0.00000115,-0.00000057,-0.00001491,0.
 00001405,-0.00000131,0.00000843,0.00000430,-0.00000031,0.00000757,-0.0
 0001689,0.00000117,-0.00000133,0.00000647,-0.00000067,-0.00001863,-0.0
 0000529,-0.00000010,0.00001859,-0.00000235,0.00000051,-0.00000037,0.00
 000143,-0.00000059,-0.00000340,-0.00000081,0.00000026,0.00000190,-0.00
 000464,0.00000090,0.00000048,0.00000347,-0.00000015,0.00000064,0.00000
 135,0.00000008,-0.00000967,0.00001628,-0.00000134,0.00000964,-0.000014
 92,0.00000143,0.00000179,0.00000436,-0.00000040,-0.00001503,-0.0000077
 0,0.00000028,0.00000030,-0.00000049,-0.00000011,0.00000548,0.00001021,
 -0.00000050,-0.00000019,0.00000018,-0.00000013,-0.00000118,-0.00000234
 ,0.00000005,-0.00000095,0.00000091,-0.00000022,-0.00000101,0.00000085,
 0.00000005,-0.00000056,0.00000101,-0.00000127,-0.00000048,-0.00000068,
 0.00000069,-0.00000052,0.00000121,0.00000031,0.00000046,-0.00000022,-0
 .00000019,-0.00000039,0.,-0.00000143,-0.00000058,0.00000093,0.00000022
 ,-0.00000096,-0.00000124,0.00000060,0.00000138,0.00000045,0.00000167,-
 0.00000467,-0.00000683,-0.00001647,0.00000083,-0.00001386,-0.00001663,
 0.00000393,0.00000776,-0.00000083,-0.00000589,0.00000068,0.00003152,-0
 .00000582,0.00001728,0.00000272,0.00000148,-0.00000398,0.00000466,-0.0
 0000179,-0.00000511,0.00000276,-0.00000017,0.00000789,-0.00000796,0.00
 000648,0.00002945,-0.00000373,-0.00013929,0.00052398,0.00018728,-0.000
 01037,-0.00000664,-0.00000461,-0.00013393,-0.00020536,0.00000363,-0.00
 026790,-0.00146278,0.00171294,0.00048845,-0.00000851,0.00073858,-0.000
 62492,-0.00029619,0.00149655,-0.00000059,-0.00000115,0.00000005,-0.000
 00070,0.00000023,-0.00000007,0.00000048,0.00000007,0.00000014,0.000000
 52,0.00000010,-0.00000010,0.04673753,0.11005833,-0.24315554,0.00454487
 ,0.01296416,-0.01928492,-0.05095627,-0.12093349,0.26001694,-0.00089664
 ,-0.00020291,-0.00001074,0.00031757,0.00003979,0.00000227,-0.00004058,
 0.00007872,-0.00000818,0.00006718,0.00003057,0.00000027,-0.00018450,0.
 00003596,-0.00000825,0.00025008,0.00015361,-0.00000327,0.00000049,0.00
 000640,0.00000024,-0.00005399,-0.00001732,-0.00000059,0.00001074,-0.00
 000956,0.00000166,0.00002526,-0.00006677,0.00000603,-0.00005754,-0.000
 00068,-0.00000125,-0.00000297,-0.00000087,-0.00000067,-0.00006749,-0.0
 0004317,0.00000340,0.00003417,0.00003964,-0.00000576,0.00005382,0.0000
 6700,-0.00000200,0.00003482,0.00004881,-0.00000434,-0.00003625,0.00000
 921,-0.00000596,0.00000076,-0.00000220,0.00000160,0.00000434,0.0000015
 2,-0.00000109,0.00001022,-0.00000727,0.00000283,-0.00000019,0.,0.00000
 084,-0.00000148,0.00000261,-0.00000033,-0.00000233,-0.00000081,-0.0000
 0501,0.00000140,0.00000011,-0.00000083,0.00000523,-0.00000248,0.000011
 47,-0.00000151,-0.00000319,0.00000162,-0.00000055,-0.00000181,0.000003
 29,0.00000059,0.00000033,-0.00000065,0.00000053,0.00000028,0.00000110,
 -0.00000106,-0.00000051,0.00000061,-0.00000035,0.00000200,0.00000221,-
 0.00000047,0.00000035,-0.00000333,-0.00000402,0.00000029,-0.00000609,0
 .00000419,-0.00000033,0.00000056,-0.00000019,-0.00000223,-0.00000011,-
 0.00001050,0.00001262,-0.00000904,0.00000249,-0.00000369,0.00000422,0.
 00000446,-0.00000012,0.00000498,0.00008899,0.00006796,-0.00000310,-0.0
 0008537,-0.00036666,0.00002053,-0.00001018,0.00000236,-0.00000063,0.00
 011749,0.00009496,0.00000769,0.00001330,-0.00003772,0.00000314,0.00006
 378,0.00003215,-0.00000089,-0.00002077,-0.00001620,0.00000065,-0.00005
 012,0.00006730,-0.00000627,0.00000479,0.00000222,-0.00000011,0.0000652
 6,-0.00008849,0.00000831,-0.00000020,0.00000530,-0.00000043,-0.0000865
 7,0.00008749,-0.00000871,0.00004795,0.00002523,-0.00000074,0.00002387,
 -0.00011880,0.00000955,-0.00000388,0.00004486,-0.00000347,-0.00011711,
 -0.00005423,0.00000121,0.00012315,-0.00001926,0.00000443,0.00000199,0.
 00000796,-0.00000056,-0.00002139,-0.00000744,0.00000005,0.00000808,-0.
 00002649,0.00000221,0.00000578,0.00003985,-0.00000285,0.00002290,0.000
 02358,-0.00000121,-0.00006608,0.00011056,-0.00000988,0.00006539,-0.000
 10211,0.00000924,0.00001324,0.00003088,-0.00000199,-0.00010244,-0.0000
 5193,0.00000138,0.00000153,-0.00000384,0.00000033,0.00003848,0.0000684
 3,-0.00000422,-0.00000195,0.00000121,-0.00000015,-0.00000854,-0.000016
 55,0.00000115,-0.00000671,0.00000616,-0.00000108,-0.00000676,0.0000062
 2,-0.00000023,-0.00000160,0.00000076,-0.00000131,0.00000010,-0.0000004
 7,-0.00000070,-0.00000107,0.00000122,0.00000040,0.00000141,-0.00000012
 ,0.00000048,0.00000080,-0.00000023,-0.00000221,-0.00000081,0.00000079,
 0.00000051,-0.00000033,-0.00000051,-0.00000266,0.00000042,-0.00000016,
 0.00000497,0.00000234,0.00000341,0.00000081,-0.00000133,0.00000271,0.0
 0000240,0.00000079,-0.00000265,0.00000033,0.00000170,-0.00000103,-0.00
 000419,0.00000385,-0.00000239,0.00000203,-0.00000233,0.00000029,-0.000
 00382,0.00000261,0.00000189,-0.00000126,-0.00000043,-0.00000256,0.0000
 0134,-0.00003524,-0.00004920,0.00000313,-0.00470592,-0.00416965,0.0001
 9430,0.00001133,-0.00001805,0.00000147,-0.00063051,0.00119161,-0.00012
 109,-0.01988130,0.02425857,-0.00247769,0.00105395,0.00028812,-0.000512
 80,0.00100855,0.00039068,0.00051187,-0.00000424,-0.00000829,0.00000052
 ,-0.00000465,0.00000154,-0.00000023,0.00000347,0.00000068,0.00000044,0
 .00000349,0.00000061,-0.00000037,-0.15314392,0.13264344,-0.01373368,0.
 00342020,-0.00497877,0.00107160,0.00442738,-0.00622084,0.00002481,0.16
 888765,-0.00005194,-0.00012108,0.00000694,-0.00013195,0.00042293,-0.00
 002228,-0.00000499,-0.00006325,0.00000514,-0.00001602,0.00001126,-0.00
 000173,-0.00002279,-0.00006666,0.00000561,-0.00007312,0.00021653,-0.00
 002665,0.00001311,0.00003804,-0.00000710,-0.00002547,0.00004519,-0.000
 00071,0.00000482,-0.00001901,0.00000119,-0.00001010,0.00003869,-0.0000
 0277,0.00007448,-0.00000306,0.00000211,0.00000174,-0.00000175,0.000000
 69,0.00003325,0.00004008,-0.00000120,-0.00001327,-0.00001732,0.0000028
 6,-0.00001936,-0.00004453,0.00000106,-0.00001795,-0.00003761,0.0000022
 9,0.00000541,0.00001227,-0.00001073,0.00000478,0.00000132,0.00000544,0
 .00000122,-0.00000482,0.00000146,-0.00001129,0.00000774,-0.00000238,0.
 00000066,-0.00000002,-0.00000033,0.00000110,-0.00000213,0.00000028,0.0
 0000217,0.00000032,0.00000462,-0.00000075,0.00000058,0.00000066,0.0000
 0660,-0.00000217,0.00000713,-0.00000320,-0.00000386,-0.00000097,-0.000
 00035,0.00000144,-0.00000322,-0.00000039,-0.00000008,0.00000047,0.0000
 0003,-0.00000023,-0.00000054,-0.00000091,0.00000128,-0.00000052,0.0000
 0060,-0.00000101,-0.00000180,0.00000083,-0.00000131,0.00000244,0.00000
 510,-0.00000174,0.00000278,-0.00000155,0.00000006,0.00000204,-0.000001
 26,0.00000034,-0.00000223,-0.00001215,0.00001801,-0.00001012,0.0000142
 7,-0.00000551,0.00000509,-0.00000636,0.00000142,-0.00000151,-0.0000138
 5,0.00002013,-0.00000184,-0.00010600,-0.00060464,0.00005988,-0.0000036
 5,0.00000306,-0.00000030,0.00017354,0.00046728,-0.00006774,0.00000822,
 0.00003082,-0.00000216,-0.00004267,-0.00002263,0.00000064,0.00000976,0
 .00001088,-0.00000054,0.00003221,-0.00003935,0.00000373,-0.00000179,0.
 00000019,0.00000003,-0.00004167,0.00005289,-0.00000504,-0.00000021,-0.
 00000259,0.00000023,0.00005020,-0.00005000,0.00000500,-0.00002615,-0.0
 0001383,0.00000043,-0.00001555,0.00006508,-0.00000528,0.00000183,-0.00
 002413,0.00000188,0.00006450,0.00002785,-0.00000051,-0.00006740,0.0000
 1082,-0.00000244,-0.00000194,-0.00000438,0.00000032,0.00001143,0.00000
 408,-0.00000005,-0.00000364,0.00001424,-0.00000121,-0.00000303,-0.0000
 2079,0.00000148,-0.00001127,-0.00001153,0.00000059,0.00003590,-0.00005
 960,0.00000533,-0.00003498,0.00005457,-0.00000494,-0.00000704,-0.00001
 648,0.00000107,0.00005459,0.00002759,-0.00000074,-0.00000089,0.0000021
 0,-0.00000017,-0.00002078,-0.00003605,0.00000220,0.00000098,-0.0000006
 8,0.00000009,0.00000448,0.00000882,-0.00000061,0.00000359,-0.00000329,
 0.00000057,0.00000363,-0.00000332,0.00000013,0.00000147,-0.00000086,0.
 00000134,-0.00000023,0.00000052,0.00000023,0.00000100,-0.00000142,-0.0
 0000031,-0.00000098,0.00000038,-0.00000035,-0.00000010,-0.00000011,0.0
 0000128,0.00000113,-0.00000097,-0.00000025,-0.00000007,0.00000055,0.00
 000101,-0.00000094,-0.00000001,-0.00000264,-0.00000782,0.00000302,-0.0
 0000725,0.00000580,0.00000299,0.00000694,-0.00000728,-0.00000888,0.000
 00106,0.00001080,0.00000040,-0.00000124,0.00000677,-0.00000573,-0.0000
 0116,0.00000183,0.00000142,-0.00000230,-0.00000536,-0.00000161,0.00000
 079,-0.00000166,-0.00000241,0.00000390,0.00001150,-0.00001664,0.000001
 60,-0.00287062,-0.00078870,0.00001873,0.00003686,0.00000985,0.00000062
 ,-0.00040511,0.00053644,-0.00003184,-0.00994367,0.01001964,-0.00121303
 ,0.00060201,0.00071107,-0.00000622,0.00064384,0.00064568,-0.00005752,0
 .00000231,0.00000447,-0.00000028,0.00000255,-0.00000081,0.00000013,-0.
 00000190,-0.00000036,-0.00000023,-0.00000191,-0.00000034,0.00000019,0.
 13538939,-0.21233924,0.01726708,0.01139378,-0.01458759,0.00297656,0.00
 864952,-0.01149877,-0.00023319,-0.14331022,0.22697060,-0.00002100,0.00
 000388,-0.00000380,0.00001499,-0.00001787,0.00018611,-0.00000137,0.000
 00763,0.00001066,0.00000379,-0.00000104,-0.00001447,-0.00000395,0.0000
 0761,0.00001811,0.00001574,-0.00002067,-0.00009225,-0.00000033,-0.0000
 0536,-0.00002358,0.00000044,-0.00000223,0.00001351,-0.00000017,0.00000
 131,0.00000169,0.00000134,-0.00000423,-0.00000044,-0.00000695,0.000000
 66,0.00000451,-0.00000016,0.00000021,0.00000042,-0.00000418,-0.0000029
 7,0.00000010,0.00000209,0.00000137,-0.00000034,0.00000306,0.00000450,-
 0.00000099,0.00000203,0.00000351,-0.00000057,-0.00000208,0.00000229,-0
 .00000098,0.00000023,-0.00000043,-0.00000206,0.00000001,0.00000052,0.0
 0000043,0.00000099,-0.00000043,0.00000018,-0.00000016,-0.00000012,0.00
 000019,-0.00000004,0.00000033,-0.00000003,-0.00000020,-0.00000017,-0.0
 0000031,0.00000002,-0.00000001,-0.00000005,-0.00000028,0.00000045,-0.0
 0000621,0.00000043,0.00000237,0.00000231,0.00000005,-0.00000012,0.0000
 0032,0.00000020,0.00000013,-0.00000016,-0.00000013,-0.00000011,0.00000
 007,-0.00000015,0.00000018,0.00000013,0.00000003,-0.00000018,-0.000000
 01,-0.00000013,0.00000016,-0.00000008,-0.00000193,0.00000065,0.0000013
 2,0.00000012,0.00000031,-0.00000064,0.00000108,-0.00000021,0.00000035,
 0.00000557,-0.00000973,0.00000854,-0.00000752,0.00000109,-0.00000532,0
 .00000261,-0.00000155,-0.00000050,0.00000381,0.00000041,0.00000068,-0.
 00000049,0.00005210,0.00017948,0.00000002,-0.00000026,-0.00000123,0.00
 000159,-0.00006916,-0.00043431,-0.00000020,-0.00000339,0.00000103,0.00
 000513,0.00000264,-0.00000067,-0.00000136,-0.00000125,0.00000036,-0.00
 000390,0.00000492,-0.00000075,0.00000025,0.00000011,0.00000097,0.00000
 510,-0.00000664,0.00000015,-0.00000001,0.00000039,0.00000050,-0.000006
 36,0.00000636,-0.00000065,0.00000339,0.00000180,0.00000020,0.00000192,
 -0.00000841,0.00000094,-0.00000026,0.00000315,-0.00000006,-0.00000836,
 -0.00000367,0.00000023,0.00000873,-0.00000138,0.00000037,0.00000017,0.
 00000063,0.00000066,-0.00000148,-0.00000057,-0.00000041,0.00000054,-0.
 00000190,-0.00000052,0.00000040,0.00000273,-0.00000031,0.00000151,0.00
 000154,-0.00000025,-0.00000467,0.00000779,-0.00000085,0.00000460,-0.00
 000717,0.00000058,0.00000090,0.00000217,0.,-0.00000718,-0.00000364,-0.
 00000001,0.00000011,-0.00000025,0.00000020,0.00000273,0.00000474,-0.00
 000039,-0.00000014,0.00000011,0.00000012,-0.00000060,-0.00000114,0.000
 00020,-0.00000049,0.00000038,-0.00000008,-0.00000044,0.00000048,-0.000
 00002,-0.00000010,0.,0.,0.00000018,0.00000005,-0.00000012,-0.00000013,
 0.00000016,0.00000002,-0.00000004,-0.00000011,0.00000006,0.00000005,-0
 .00000013,0.00000010,-0.00000009,0.00000008,0.00000012,0.00000008,0.00
 000017,-0.00000016,0.00000007,-0.00000018,-0.00000002,0.00000250,-0.00
 000012,-0.00000145,0.00000091,-0.00000004,-0.00000103,0.00000065,0.000
 00163,0.00000221,-0.00000401,-0.00000070,0.00000078,-0.00000277,0.0000
 0329,0.00000087,-0.00000198,-0.00000135,0.00000221,0.00000230,0.000001
 27,0.00000044,0.00000112,0.00000144,-0.00000198,-0.00000215,-0.0000001
 0,0.00000042,0.00008644,-0.00001704,0.00043938,-0.00000278,-0.00000088
 ,0.00000481,0.00000725,0.00001340,0.00028874,0.00028745,-0.00025823,-0
 .00150669,-0.00026405,0.00031479,0.00001689,0.00021677,-0.00039524,0.0
 0011950,-0.00000029,-0.00000057,0.00000009,-0.00000033,0.00000011,0.00
 000003,0.00000028,0.00000009,0.,0.00000021,0.,-0.00000006,-0.01395582,
 0.01719103,-0.04752726,0.01672698,-0.01957993,0.00242574,-0.01815333,0
 .02144891,-0.00166332,0.01504555,-0.01867713,0.04755733\\0.00001860,0.
 00000670,0.00000193,-0.00001170,-0.00000592,-0.00000107,-0.00000475,-0
 .00000388,0.00000123,0.00000604,0.00000018,-0.00000092,-0.00000013,-0.
 00001284,0.00000237,-0.00001715,0.00001249,-0.00000343,0.00000039,-0.0
 0000232,0.00000051,-0.00000089,0.00001177,-0.00000241,0.00000325,0.000
 00298,0.00000020,-0.00000068,-0.00000502,0.00000138,-0.00000309,-0.000
 00920,0.00000254,-0.00000093,-0.00000052,-0.00000029,-0.00000402,-0.00
 001459,0.00000168,0.00000520,0.00000852,-0.00000429,-0.00000016,0.0000
 0743,-0.00000042,0.00000246,0.00000616,-0.00000039,-0.00000243,0.00000
 112,-0.00000012,0.00000096,-0.00000076,0.00000036,0.00000024,-0.000000
 14,0.00000021,0.00000177,-0.00000062,0.00000208,-0.00000069,0.00000041
 ,-0.00000066,0.00000023,0.00000021,0.00000054,0.00000003,-0.00000099,-
 0.00000191,0.00000006,0.00000003,0.00000060,0.00000020,-0.00000016,0.0
 0000299,-0.00000002,0.00000013,-0.00000016,-0.00000032,0.00000081,0.00
 000082,0.00000014,-0.00000027,0.00000028,0.00000002,-0.00000023,0.0000
 0041,0.00000056,-0.00000063,0.00000146,-0.00000018,0.00000005,0.000000
 01,-0.00000033,0.00000013,-0.00000015,0.00000041,0.00000037,-0.0000009
 3,-0.00000020,0.00000005,0.00000016,-0.00000005,-0.00000017,0.00000038
 ,0.00000047,0.00000034,-0.00000153,-0.00000013,-0.00000022,0.00000027,
 -0.00000010,0.00000005,0.00000034,0.00000156,0.00000516,-0.00000140,0.
 00000949,-0.00000233,-0.00000057,-0.00000255,-0.00000048,-0.00000056,-
 0.00000018,0.00000028,-0.00000007,-0.00000004,0.00000687,0.00000489,-0
 .00001010,-0.00000288,-0.00000303,-0.00000151,-0.00000297,-0.00000601,
 0.00000589,-0.00000885,-0.00000229,0.00000437,0.00000122,-0.00000011,0
 .00000969,0.00000956,0.00000488,-0.00000330,0.00000225,-0.00000054,-0.
 00000195,-0.00000763,0.00000141,0.00000301,0.00000316,0.00000033,-0.00
 001516,-0.00000274,-0.00000110,0.00000142,0.00000922,0.00000121,0.0000
 0196,-0.00001323,-0.00000140,0.00000143,-0.00000636,0.00000052,-0.0000
 0192,-0.00000047,-0.00000039,-0.00000455,-0.00000231,-0.00000040,0.000
 00283,0.,-0.00000096,0.00000159,0.00001109,-0.00000141,0.00000772,0.00
 000813,0.00000019,-0.00000442,0.00000819,-0.00000062,-0.00000007,-0.00
 000133,0.00000169,-0.00000186,0.00000052,-0.00000003,-0.00000170,0.000
 00404,-0.00000263,0.00000174,-0.00000153,0.00000072,0.00000736,-0.0000
 0856,0.00000178,-0.00000056,-0.00000062,0.00000098,-0.00000065,-0.0000
 0032,0.00000105,0.00000030,0.00000159,-0.00000122,-0.00000016,-0.00000
 036,-0.00000128,0.00000003,-0.00000014,-0.00000001,0.00000006,-0.00000
 028,0.00000043,0.00000016,-0.00000013,0.00000036,0.00000002,-0.0000001
 8,0.00000064,0.00000012,0.00000074,-0.00000038,0.00000012,-0.00000027,
 0.00000036,-0.00000015,-0.00000060,0.00000027,-0.00000017,-0.00000025,
 0.00000011,0.00000105,0.00000047,0.00000066,-0.00000055,-0.00000034,-0
 .00000005,-0.00000026,-0.00000020,0.,-0.00000030,-0.00000025,0.,-0.000
 00013,-0.00000025,0.00000075,-0.00000016,0.00000021,0.,0.00000002,0.00
 000028,0.00000011,0.00000006,0.00000025,0.,0.00000278,-0.00000727,0.00
 000195,-0.00001268,0.00000071,-0.00000047,0.00000365,-0.00000105,-0.00
 000060,0.00000281,-0.00000312,0.00000004,-0.00000025,-0.00000073,0.000
 00018,0.00000054,0.00000064,-0.00000078,0.00000020,0.00000005,-0.00000
 088,-0.00000035,-0.00000014,0.00000098,0.00000045,-0.00000002,-0.00000
 005,-0.00000023,0.00000084,-0.00000016,0.00000052,0.00000071,0.0000000
 4,-0.00000045,-0.00000083,0.00000006,0.00000037,0.00000077,-0.00000029
 ,0.00000057,0.00000071,-0.00000050,-0.00000060,-0.00000001,-0.00000048
 \\\@


 KNOWLEDGE IS EXPERIMENT'S DAUGHTER.
 -- LEONARDO DA VINCI, IN "PENSIERI" CA. 1492
 Job cpu time:       2 days 16 hours 42 minutes 36.3 seconds.
 Elapsed time:       0 days  1 hours 50 minutes 39.3 seconds.
 File lengths (MBytes):  RWF=  31183 Int=      0 D2E=      0 Chk=    199 Scr=      1
 Normal termination of Gaussian 16 at Tue Aug 16 22:53:27 2022.
